h 0.5 1 5 cbr 1000 ------- 0 1.0 0.0 0 0
h 0.5 2 5 cbr 1000 ------- 0 2.0 0.1 0 1
h 0.5 3 5 cbr 1000 ------- 0 3.0 0.2 0 2
h 0.5 4 5 cbr 1000 ------- 0 4.0 0.3 0 3
+ 0.5 1 5 cbr 1000 ------- 0 1.0 0.0 0 0
- 0.5 1 5 cbr 1000 ------- 0 1.0 0.0 0 0
+ 0.5 2 5 cbr 1000 ------- 0 2.0 0.1 0 1
- 0.5 2 5 cbr 1000 ------- 0 2.0 0.1 0 1
+ 0.5 3 5 cbr 1000 ------- 0 3.0 0.2 0 2
- 0.5 3 5 cbr 1000 ------- 0 3.0 0.2 0 2
+ 0.5 4 5 cbr 1000 ------- 0 4.0 0.3 0 3
- 0.5 4 5 cbr 1000 ------- 0 4.0 0.3 0 3
c 0.500004 4 5 cbr 1014 ------- 0 1.0 0.0 0 0
c 0.500004 3 5 cbr 1014 ------- 0 1.0 0.0 0 0
c 0.500004 2 5 cbr 1014 ------- 0 1.0 0.0 0 0
c 0.500004 1 5 cbr 1014 ------- 0 2.0 0.1 0 1
r 0.508248 5 0 cbr 1000 ------- 0 2.0 0.1 0 1
c 0.508348 3 5 cbr 1014 ------- 0 4.0 0.3 0 3
c 0.508348 1 5 cbr 1014 ------- 0 4.0 0.3 0 3
c 0.508348 4 5 cbr 1014 ------- 0 3.0 0.2 0 2
c 0.508992 4 5 cbr 1014 ------- 0 1.0 0.0 0 0
c 0.508992 1 5 cbr 1014 ------- 0 4.0 0.3 0 3
r 0.517748 5 0 cbr 1000 ------- 0 4.0 0.3 0 3
c 0.517848 1 5 cbr 1014 ------- 0 3.0 0.2 0 2
c 0.517848 3 5 cbr 1014 ------- 0 1.0 0.0 0 0
r 0.526604 5 0 cbr 1000 ------- 0 3.0 0.2 0 2
r 0.534816 5 0 cbr 1000 ------- 0 1.0 0.0 0 0
h 0.58 1 5 cbr 1000 ------- 0 1.0 0.0 1 4
h 0.58 2 5 cbr 1000 ------- 0 2.0 0.1 1 5
h 0.58 3 5 cbr 1000 ------- 0 3.0 0.2 1 6
h 0.58 4 5 cbr 1000 ------- 0 4.0 0.3 1 7
+ 0.58 1 5 cbr 1000 ------- 0 1.0 0.0 1 4
- 0.58 1 5 cbr 1000 ------- 0 1.0 0.0 1 4
+ 0.58 2 5 cbr 1000 ------- 0 2.0 0.1 1 5
- 0.58 2 5 cbr 1000 ------- 0 2.0 0.1 1 5
+ 0.58 3 5 cbr 1000 ------- 0 3.0 0.2 1 6
- 0.58 3 5 cbr 1000 ------- 0 3.0 0.2 1 6
+ 0.58 4 5 cbr 1000 ------- 0 4.0 0.3 1 7
- 0.58 4 5 cbr 1000 ------- 0 4.0 0.3 1 7
c 0.580004 4 5 cbr 1014 ------- 0 1.0 0.0 1 4
c 0.580004 3 5 cbr 1014 ------- 0 1.0 0.0 1 4
c 0.580004 2 5 cbr 1014 ------- 0 1.0 0.0 1 4
c 0.580004 1 5 cbr 1014 ------- 0 2.0 0.1 1 5
c 0.580136 2 5 cbr 1014 ------- 0 4.0 0.3 1 7
c 0.580136 4 5 cbr 1014 ------- 0 2.0 0.1 1 5
r 0.58838 5 0 cbr 1000 ------- 0 4.0 0.3 1 7
c 0.58848 2 5 cbr 1014 ------- 0 3.0 0.2 1 6
c 0.58848 1 5 cbr 1014 ------- 0 3.0 0.2 1 6
c 0.58848 3 5 cbr 1014 ------- 0 2.0 0.1 1 5
c 0.589124 3 5 cbr 1014 ------- 0 1.0 0.0 1 4
c 0.589124 1 5 cbr 1014 ------- 0 3.0 0.2 1 6
r 0.597748 5 0 cbr 1000 ------- 0 2.0 0.1 1 5
c 0.597848 1 5 cbr 1014 ------- 0 3.0 0.2 1 6
c 0.597848 3 5 cbr 1014 ------- 0 1.0 0.0 1 4
r 0.609676 5 0 cbr 1000 ------- 0 3.0 0.2 1 6
r 0.617888 5 0 cbr 1000 ------- 0 1.0 0.0 1 4
h 0.66 1 5 cbr 1000 ------- 0 1.0 0.0 2 8
h 0.66 2 5 cbr 1000 ------- 0 2.0 0.1 2 9
h 0.66 3 5 cbr 1000 ------- 0 3.0 0.2 2 10
h 0.66 4 5 cbr 1000 ------- 0 4.0 0.3 2 11
+ 0.66 1 5 cbr 1000 ------- 0 1.0 0.0 2 8
- 0.66 1 5 cbr 1000 ------- 0 1.0 0.0 2 8
+ 0.66 2 5 cbr 1000 ------- 0 2.0 0.1 2 9
- 0.66 2 5 cbr 1000 ------- 0 2.0 0.1 2 9
+ 0.66 3 5 cbr 1000 ------- 0 3.0 0.2 2 10
- 0.66 3 5 cbr 1000 ------- 0 3.0 0.2 2 10
+ 0.66 4 5 cbr 1000 ------- 0 4.0 0.3 2 11
- 0.66 4 5 cbr 1000 ------- 0 4.0 0.3 2 11
c 0.660004 4 5 cbr 1014 ------- 0 1.0 0.0 2 8
c 0.660004 3 5 cbr 1014 ------- 0 1.0 0.0 2 8
c 0.660004 2 5 cbr 1014 ------- 0 1.0 0.0 2 8
c 0.660004 1 5 cbr 1014 ------- 0 2.0 0.1 2 9
c 0.660136 3 5 cbr 1014 ------- 0 4.0 0.3 2 11
c 0.660136 2 5 cbr 1014 ------- 0 4.0 0.3 2 11
c 0.660136 1 5 cbr 1014 ------- 0 4.0 0.3 2 11
c 0.660136 4 5 cbr 1014 ------- 0 3.0 0.2 2 10
r 0.66838 5 0 cbr 1000 ------- 0 1.0 0.0 2 8
c 0.66848 3 5 cbr 1014 ------- 0 4.0 0.3 2 11
c 0.66848 2 5 cbr 1014 ------- 0 4.0 0.3 2 11
c 0.66848 4 5 cbr 1014 ------- 0 3.0 0.2 2 10
r 0.676724 5 0 cbr 1000 ------- 0 2.0 0.1 2 9
c 0.676824 3 5 cbr 1014 ------- 0 4.0 0.3 2 11
c 0.676824 4 5 cbr 1014 ------- 0 3.0 0.2 2 10
r 0.687628 5 0 cbr 1000 ------- 0 4.0 0.3 2 11
r 0.69584 5 0 cbr 1000 ------- 0 3.0 0.2 2 10
h 0.74 1 5 cbr 1000 ------- 0 1.0 0.0 3 12
h 0.74 2 5 cbr 1000 ------- 0 2.0 0.1 3 13
h 0.74 3 5 cbr 1000 ------- 0 3.0 0.2 3 14
h 0.74 4 5 cbr 1000 ------- 0 4.0 0.3 3 15
+ 0.74 1 5 cbr 1000 ------- 0 1.0 0.0 3 12
- 0.74 1 5 cbr 1000 ------- 0 1.0 0.0 3 12
+ 0.74 2 5 cbr 1000 ------- 0 2.0 0.1 3 13
- 0.74 2 5 cbr 1000 ------- 0 2.0 0.1 3 13
+ 0.74 3 5 cbr 1000 ------- 0 3.0 0.2 3 14
- 0.74 3 5 cbr 1000 ------- 0 3.0 0.2 3 14
+ 0.74 4 5 cbr 1000 ------- 0 4.0 0.3 3 15
- 0.74 4 5 cbr 1000 ------- 0 4.0 0.3 3 15
c 0.740004 4 5 cbr 1014 ------- 0 1.0 0.0 3 12
c 0.740004 3 5 cbr 1014 ------- 0 1.0 0.0 3 12
c 0.740004 2 5 cbr 1014 ------- 0 1.0 0.0 3 12
c 0.740004 1 5 cbr 1014 ------- 0 2.0 0.1 3 13
c 0.740648 3 5 cbr 1014 ------- 0 4.0 0.3 3 15
c 0.740648 2 5 cbr 1014 ------- 0 4.0 0.3 3 15
c 0.740648 1 5 cbr 1014 ------- 0 4.0 0.3 3 15
c 0.740648 4 5 cbr 1014 ------- 0 3.0 0.2 3 14
r 0.748892 5 0 cbr 1000 ------- 0 2.0 0.1 3 13
c 0.748992 3 5 cbr 1014 ------- 0 4.0 0.3 3 15
c 0.748992 1 5 cbr 1014 ------- 0 4.0 0.3 3 15
c 0.748992 4 5 cbr 1014 ------- 0 3.0 0.2 3 14
c 0.749124 4 5 cbr 1014 ------- 0 3.0 0.2 3 14
c 0.749124 3 5 cbr 1014 ------- 0 4.0 0.3 3 15
r 0.75788 5 0 cbr 1000 ------- 0 4.0 0.3 3 15
c 0.75798 1 5 cbr 1014 ------- 0 3.0 0.2 3 14
c 0.75798 3 5 cbr 1014 ------- 0 1.0 0.0 3 12
r 0.77032 5 0 cbr 1000 ------- 0 3.0 0.2 3 14
r 0.778532 5 0 cbr 1000 ------- 0 1.0 0.0 3 12
h 0.82 1 5 cbr 1000 ------- 0 1.0 0.0 4 16
h 0.82 2 5 cbr 1000 ------- 0 2.0 0.1 4 17
h 0.82 3 5 cbr 1000 ------- 0 3.0 0.2 4 18
h 0.82 4 5 cbr 1000 ------- 0 4.0 0.3 4 19
+ 0.82 1 5 cbr 1000 ------- 0 1.0 0.0 4 16
- 0.82 1 5 cbr 1000 ------- 0 1.0 0.0 4 16
+ 0.82 2 5 cbr 1000 ------- 0 2.0 0.1 4 17
- 0.82 2 5 cbr 1000 ------- 0 2.0 0.1 4 17
+ 0.82 3 5 cbr 1000 ------- 0 3.0 0.2 4 18
- 0.82 3 5 cbr 1000 ------- 0 3.0 0.2 4 18
+ 0.82 4 5 cbr 1000 ------- 0 4.0 0.3 4 19
- 0.82 4 5 cbr 1000 ------- 0 4.0 0.3 4 19
c 0.820004 4 5 cbr 1014 ------- 0 1.0 0.0 4 16
c 0.820004 3 5 cbr 1014 ------- 0 1.0 0.0 4 16
c 0.820004 2 5 cbr 1014 ------- 0 1.0 0.0 4 16
c 0.820004 1 5 cbr 1014 ------- 0 2.0 0.1 4 17
r 0.828248 5 0 cbr 1000 ------- 0 2.0 0.1 4 17
c 0.828348 3 5 cbr 1014 ------- 0 4.0 0.3 4 19
c 0.828348 1 5 cbr 1014 ------- 0 4.0 0.3 4 19
c 0.828348 4 5 cbr 1014 ------- 0 3.0 0.2 4 18
r 0.836592 5 0 cbr 1000 ------- 0 3.0 0.2 4 18
c 0.836692 1 5 cbr 1014 ------- 0 4.0 0.3 4 19
c 0.836692 4 5 cbr 1014 ------- 0 1.0 0.0 4 16
r 0.847496 5 0 cbr 1000 ------- 0 4.0 0.3 4 19
r 0.855708 5 0 cbr 1000 ------- 0 1.0 0.0 4 16
h 0.9 1 5 cbr 1000 ------- 0 1.0 0.0 5 20
h 0.9 2 5 cbr 1000 ------- 0 2.0 0.1 5 21
h 0.9 3 5 cbr 1000 ------- 0 3.0 0.2 5 22
h 0.9 4 5 cbr 1000 ------- 0 4.0 0.3 5 23
+ 0.9 1 5 cbr 1000 ------- 0 1.0 0.0 5 20
- 0.9 1 5 cbr 1000 ------- 0 1.0 0.0 5 20
+ 0.9 2 5 cbr 1000 ------- 0 2.0 0.1 5 21
- 0.9 2 5 cbr 1000 ------- 0 2.0 0.1 5 21
+ 0.9 3 5 cbr 1000 ------- 0 3.0 0.2 5 22
- 0.9 3 5 cbr 1000 ------- 0 3.0 0.2 5 22
+ 0.9 4 5 cbr 1000 ------- 0 4.0 0.3 5 23
- 0.9 4 5 cbr 1000 ------- 0 4.0 0.3 5 23
c 0.900004 4 5 cbr 1014 ------- 0 1.0 0.0 5 20
c 0.900004 3 5 cbr 1014 ------- 0 1.0 0.0 5 20
c 0.900004 2 5 cbr 1014 ------- 0 1.0 0.0 5 20
c 0.900004 1 5 cbr 1014 ------- 0 2.0 0.1 5 21
c 0.900136 3 5 cbr 1014 ------- 0 4.0 0.3 5 23
c 0.900136 2 5 cbr 1014 ------- 0 4.0 0.3 5 23
c 0.900136 4 5 cbr 1014 ------- 0 3.0 0.2 5 22
r 0.90876 5 0 cbr 1000 ------- 0 1.0 0.0 5 20
c 0.90886 3 5 cbr 1014 ------- 0 4.0 0.3 5 23
c 0.90886 2 5 cbr 1014 ------- 0 4.0 0.3 5 23
c 0.90886 4 5 cbr 1014 ------- 0 3.0 0.2 5 22
r 0.918128 5 0 cbr 1000 ------- 0 2.0 0.1 5 21
c 0.918228 3 5 cbr 1014 ------- 0 4.0 0.3 5 23
c 0.918228 4 5 cbr 1014 ------- 0 3.0 0.2 5 22
r 0.930056 5 0 cbr 1000 ------- 0 3.0 0.2 5 22
r 0.938268 5 0 cbr 1000 ------- 0 4.0 0.3 5 23
h 0.98 1 5 cbr 1000 ------- 0 1.0 0.0 6 24
h 0.98 2 5 cbr 1000 ------- 0 2.0 0.1 6 25
h 0.98 3 5 cbr 1000 ------- 0 3.0 0.2 6 26
h 0.98 4 5 cbr 1000 ------- 0 4.0 0.3 6 27
+ 0.98 1 5 cbr 1000 ------- 0 1.0 0.0 6 24
- 0.98 1 5 cbr 1000 ------- 0 1.0 0.0 6 24
+ 0.98 2 5 cbr 1000 ------- 0 2.0 0.1 6 25
- 0.98 2 5 cbr 1000 ------- 0 2.0 0.1 6 25
+ 0.98 3 5 cbr 1000 ------- 0 3.0 0.2 6 26
- 0.98 3 5 cbr 1000 ------- 0 3.0 0.2 6 26
+ 0.98 4 5 cbr 1000 ------- 0 4.0 0.3 6 27
- 0.98 4 5 cbr 1000 ------- 0 4.0 0.3 6 27
c 0.980004 4 5 cbr 1014 ------- 0 1.0 0.0 6 24
c 0.980004 3 5 cbr 1014 ------- 0 1.0 0.0 6 24
c 0.980004 2 5 cbr 1014 ------- 0 1.0 0.0 6 24
c 0.980004 1 5 cbr 1014 ------- 0 2.0 0.1 6 25
c 0.980136 2 5 cbr 1014 ------- 0 3.0 0.2 6 26
c 0.980136 1 5 cbr 1014 ------- 0 3.0 0.2 6 26
c 0.980136 3 5 cbr 1014 ------- 0 2.0 0.1 6 25
r 0.98838 5 0 cbr 1000 ------- 0 2.0 0.1 6 25
c 0.98848 3 5 cbr 1014 ------- 0 4.0 0.3 6 27
c 0.98848 1 5 cbr 1014 ------- 0 4.0 0.3 6 27
c 0.98848 4 5 cbr 1014 ------- 0 3.0 0.2 6 26
r 0.997236 5 0 cbr 1000 ------- 0 4.0 0.3 6 27
c 0.997336 1 5 cbr 1014 ------- 0 3.0 0.2 6 26
c 0.997336 3 5 cbr 1014 ------- 0 1.0 0.0 6 24
r 1.007116 5 0 cbr 1000 ------- 0 1.0 0.0 6 24
r 1.015328 5 0 cbr 1000 ------- 0 3.0 0.2 6 26
h 1.06 1 5 cbr 1000 ------- 0 1.0 0.0 7 28
h 1.06 2 5 cbr 1000 ------- 0 2.0 0.1 7 29
h 1.06 3 5 cbr 1000 ------- 0 3.0 0.2 7 30
h 1.06 4 5 cbr 1000 ------- 0 4.0 0.3 7 31
+ 1.06 1 5 cbr 1000 ------- 0 1.0 0.0 7 28
- 1.06 1 5 cbr 1000 ------- 0 1.0 0.0 7 28
+ 1.06 2 5 cbr 1000 ------- 0 2.0 0.1 7 29
- 1.06 2 5 cbr 1000 ------- 0 2.0 0.1 7 29
+ 1.06 3 5 cbr 1000 ------- 0 3.0 0.2 7 30
- 1.06 3 5 cbr 1000 ------- 0 3.0 0.2 7 30
+ 1.06 4 5 cbr 1000 ------- 0 4.0 0.3 7 31
- 1.06 4 5 cbr 1000 ------- 0 4.0 0.3 7 31
c 1.060004 4 5 cbr 1014 ------- 0 1.0 0.0 7 28
c 1.060004 3 5 cbr 1014 ------- 0 1.0 0.0 7 28
c 1.060004 2 5 cbr 1014 ------- 0 1.0 0.0 7 28
c 1.060004 1 5 cbr 1014 ------- 0 2.0 0.1 7 29
c 1.060136 2 5 cbr 1014 ------- 0 3.0 0.2 7 30
c 1.060136 1 5 cbr 1014 ------- 0 3.0 0.2 7 30
c 1.060136 3 5 cbr 1014 ------- 0 2.0 0.1 7 29
r 1.06876 5 0 cbr 1000 ------- 0 4.0 0.3 7 31
c 1.06886 2 5 cbr 1014 ------- 0 3.0 0.2 7 30
c 1.06886 1 5 cbr 1014 ------- 0 3.0 0.2 7 30
c 1.06886 3 5 cbr 1014 ------- 0 2.0 0.1 7 29
r 1.077104 5 0 cbr 1000 ------- 0 1.0 0.0 7 28
c 1.077204 2 5 cbr 1014 ------- 0 3.0 0.2 7 30
c 1.077204 3 5 cbr 1014 ------- 0 2.0 0.1 7 29
r 1.089032 5 0 cbr 1000 ------- 0 3.0 0.2 7 30
r 1.097244 5 0 cbr 1000 ------- 0 2.0 0.1 7 29
h 1.14 1 5 cbr 1000 ------- 0 1.0 0.0 8 32
h 1.14 2 5 cbr 1000 ------- 0 2.0 0.1 8 33
h 1.14 3 5 cbr 1000 ------- 0 3.0 0.2 8 34
h 1.14 4 5 cbr 1000 ------- 0 4.0 0.3 8 35
+ 1.14 1 5 cbr 1000 ------- 0 1.0 0.0 8 32
- 1.14 1 5 cbr 1000 ------- 0 1.0 0.0 8 32
+ 1.14 2 5 cbr 1000 ------- 0 2.0 0.1 8 33
- 1.14 2 5 cbr 1000 ------- 0 2.0 0.1 8 33
+ 1.14 3 5 cbr 1000 ------- 0 3.0 0.2 8 34
- 1.14 3 5 cbr 1000 ------- 0 3.0 0.2 8 34
+ 1.14 4 5 cbr 1000 ------- 0 4.0 0.3 8 35
- 1.14 4 5 cbr 1000 ------- 0 4.0 0.3 8 35
c 1.140004 4 5 cbr 1014 ------- 0 1.0 0.0 8 32
c 1.140004 3 5 cbr 1014 ------- 0 1.0 0.0 8 32
c 1.140004 2 5 cbr 1014 ------- 0 1.0 0.0 8 32
c 1.140004 1 5 cbr 1014 ------- 0 2.0 0.1 8 33
c 1.140136 1 5 cbr 1014 ------- 0 3.0 0.2 8 34
c 1.140136 3 5 cbr 1014 ------- 0 1.0 0.0 8 32
c 1.140268 3 5 cbr 1014 ------- 0 1.0 0.0 8 32
c 1.140268 1 5 cbr 1014 ------- 0 3.0 0.2 8 34
c 1.140648 2 5 cbr 1014 ------- 0 4.0 0.3 8 35
c 1.140648 4 5 cbr 1014 ------- 0 2.0 0.1 8 33
c 1.14078 4 5 cbr 1014 ------- 0 2.0 0.1 8 33
c 1.14078 2 5 cbr 1014 ------- 0 4.0 0.3 8 35
r 1.149536 5 0 cbr 1000 ------- 0 4.0 0.3 8 35
c 1.149636 2 5 cbr 1014 ------- 0 3.0 0.2 8 34
c 1.149636 1 5 cbr 1014 ------- 0 3.0 0.2 8 34
c 1.149636 3 5 cbr 1014 ------- 0 2.0 0.1 8 33
r 1.159416 5 0 cbr 1000 ------- 0 1.0 0.0 8 32
c 1.159516 2 5 cbr 1014 ------- 0 3.0 0.2 8 34
c 1.159516 3 5 cbr 1014 ------- 0 2.0 0.1 8 33
r 1.168784 5 0 cbr 1000 ------- 0 3.0 0.2 8 34
r 1.176996 5 0 cbr 1000 ------- 0 2.0 0.1 8 33
h 1.22 1 5 cbr 1000 ------- 0 1.0 0.0 9 36
h 1.22 2 5 cbr 1000 ------- 0 2.0 0.1 9 37
h 1.22 3 5 cbr 1000 ------- 0 3.0 0.2 9 38
h 1.22 4 5 cbr 1000 ------- 0 4.0 0.3 9 39
+ 1.22 1 5 cbr 1000 ------- 0 1.0 0.0 9 36
- 1.22 1 5 cbr 1000 ------- 0 1.0 0.0 9 36
+ 1.22 2 5 cbr 1000 ------- 0 2.0 0.1 9 37
- 1.22 2 5 cbr 1000 ------- 0 2.0 0.1 9 37
+ 1.22 3 5 cbr 1000 ------- 0 3.0 0.2 9 38
- 1.22 3 5 cbr 1000 ------- 0 3.0 0.2 9 38
+ 1.22 4 5 cbr 1000 ------- 0 4.0 0.3 9 39
- 1.22 4 5 cbr 1000 ------- 0 4.0 0.3 9 39
c 1.220004 4 5 cbr 1014 ------- 0 1.0 0.0 9 36
c 1.220004 3 5 cbr 1014 ------- 0 1.0 0.0 9 36
c 1.220004 2 5 cbr 1014 ------- 0 1.0 0.0 9 36
c 1.220004 1 5 cbr 1014 ------- 0 2.0 0.1 9 37
c 1.220136 2 5 cbr 1014 ------- 0 4.0 0.3 9 39
c 1.220136 4 5 cbr 1014 ------- 0 2.0 0.1 9 37
c 1.220648 1 5 cbr 1014 ------- 0 3.0 0.2 9 38
c 1.220648 3 5 cbr 1014 ------- 0 1.0 0.0 9 36
r 1.228892 5 0 cbr 1000 ------- 0 2.0 0.1 9 37
c 1.228992 3 5 cbr 1014 ------- 0 4.0 0.3 9 39
c 1.228992 1 5 cbr 1014 ------- 0 4.0 0.3 9 39
c 1.228992 4 5 cbr 1014 ------- 0 3.0 0.2 9 38
r 1.237236 5 0 cbr 1000 ------- 0 1.0 0.0 9 36
c 1.237336 3 5 cbr 1014 ------- 0 4.0 0.3 9 39
c 1.237336 4 5 cbr 1014 ------- 0 3.0 0.2 9 38
r 1.246092 5 0 cbr 1000 ------- 0 4.0 0.3 9 39
r 1.254304 5 0 cbr 1000 ------- 0 3.0 0.2 9 38
h 1.3 1 5 cbr 1000 ------- 0 1.0 0.0 10 40
h 1.3 2 5 cbr 1000 ------- 0 2.0 0.1 10 41
h 1.3 3 5 cbr 1000 ------- 0 3.0 0.2 10 42
h 1.3 4 5 cbr 1000 ------- 0 4.0 0.3 10 43
+ 1.3 1 5 cbr 1000 ------- 0 1.0 0.0 10 40
- 1.3 1 5 cbr 1000 ------- 0 1.0 0.0 10 40
+ 1.3 2 5 cbr 1000 ------- 0 2.0 0.1 10 41
- 1.3 2 5 cbr 1000 ------- 0 2.0 0.1 10 41
+ 1.3 3 5 cbr 1000 ------- 0 3.0 0.2 10 42
- 1.3 3 5 cbr 1000 ------- 0 3.0 0.2 10 42
+ 1.3 4 5 cbr 1000 ------- 0 4.0 0.3 10 43
- 1.3 4 5 cbr 1000 ------- 0 4.0 0.3 10 43
c 1.300004 4 5 cbr 1014 ------- 0 1.0 0.0 10 40
c 1.300004 3 5 cbr 1014 ------- 0 1.0 0.0 10 40
c 1.300004 2 5 cbr 1014 ------- 0 1.0 0.0 10 40
c 1.300004 1 5 cbr 1014 ------- 0 2.0 0.1 10 41
c 1.300136 1 5 cbr 1014 ------- 0 2.0 0.1 10 41
c 1.300136 2 5 cbr 1014 ------- 0 1.0 0.0 10 40
r 1.30838 5 0 cbr 1000 ------- 0 1.0 0.0 10 40
c 1.30848 3 5 cbr 1014 ------- 0 4.0 0.3 10 43
c 1.30848 2 5 cbr 1014 ------- 0 4.0 0.3 10 43
c 1.30848 4 5 cbr 1014 ------- 0 3.0 0.2 10 42
c 1.309124 4 5 cbr 1014 ------- 0 3.0 0.2 10 42
c 1.309124 2 5 cbr 1014 ------- 0 3.0 0.2 10 42
c 1.309124 3 5 cbr 1014 ------- 0 2.0 0.1 10 41
r 1.318392 5 0 cbr 1000 ------- 0 2.0 0.1 10 41
c 1.318492 3 5 cbr 1014 ------- 0 4.0 0.3 10 43
c 1.318492 4 5 cbr 1014 ------- 0 3.0 0.2 10 42
r 1.326736 5 0 cbr 1000 ------- 0 3.0 0.2 10 42
r 1.334948 5 0 cbr 1000 ------- 0 4.0 0.3 10 43
h 1.38 1 5 cbr 1000 ------- 0 1.0 0.0 11 44
h 1.38 2 5 cbr 1000 ------- 0 2.0 0.1 11 45
h 1.38 3 5 cbr 1000 ------- 0 3.0 0.2 11 46
h 1.38 4 5 cbr 1000 ------- 0 4.0 0.3 11 47
+ 1.38 1 5 cbr 1000 ------- 0 1.0 0.0 11 44
- 1.38 1 5 cbr 1000 ------- 0 1.0 0.0 11 44
+ 1.38 2 5 cbr 1000 ------- 0 2.0 0.1 11 45
- 1.38 2 5 cbr 1000 ------- 0 2.0 0.1 11 45
+ 1.38 3 5 cbr 1000 ------- 0 3.0 0.2 11 46
- 1.38 3 5 cbr 1000 ------- 0 3.0 0.2 11 46
+ 1.38 4 5 cbr 1000 ------- 0 4.0 0.3 11 47
- 1.38 4 5 cbr 1000 ------- 0 4.0 0.3 11 47
c 1.380004 4 5 cbr 1014 ------- 0 1.0 0.0 11 44
c 1.380004 3 5 cbr 1014 ------- 0 1.0 0.0 11 44
c 1.380004 2 5 cbr 1014 ------- 0 1.0 0.0 11 44
c 1.380004 1 5 cbr 1014 ------- 0 2.0 0.1 11 45
c 1.380136 3 5 cbr 1014 ------- 0 4.0 0.3 11 47
c 1.380136 2 5 cbr 1014 ------- 0 4.0 0.3 11 47
c 1.380136 1 5 cbr 1014 ------- 0 4.0 0.3 11 47
c 1.380136 4 5 cbr 1014 ------- 0 3.0 0.2 11 46
c 1.380268 1 5 cbr 1014 ------- 0 3.0 0.2 11 46
c 1.380268 3 5 cbr 1014 ------- 0 1.0 0.0 11 44
r 1.389404 5 0 cbr 1000 ------- 0 4.0 0.3 11 47
c 1.389504 2 5 cbr 1014 ------- 0 3.0 0.2 11 46
c 1.389504 1 5 cbr 1014 ------- 0 3.0 0.2 11 46
c 1.389504 3 5 cbr 1014 ------- 0 2.0 0.1 11 45
r 1.39826 5 0 cbr 1000 ------- 0 3.0 0.2 11 46
c 1.39836 1 5 cbr 1014 ------- 0 2.0 0.1 11 45
c 1.39836 2 5 cbr 1014 ------- 0 1.0 0.0 11 44
c 1.399004 2 5 cbr 1014 ------- 0 1.0 0.0 11 44
c 1.399004 1 5 cbr 1014 ------- 0 2.0 0.1 11 45
r 1.420048 5 0 cbr 1000 ------- 0 2.0 0.1 11 45
r 1.42826 5 0 cbr 1000 ------- 0 1.0 0.0 11 44
h 1.46 1 5 cbr 1000 ------- 0 1.0 0.0 12 48
h 1.46 2 5 cbr 1000 ------- 0 2.0 0.1 12 49
h 1.46 3 5 cbr 1000 ------- 0 3.0 0.2 12 50
h 1.46 4 5 cbr 1000 ------- 0 4.0 0.3 12 51
+ 1.46 1 5 cbr 1000 ------- 0 1.0 0.0 12 48
- 1.46 1 5 cbr 1000 ------- 0 1.0 0.0 12 48
+ 1.46 2 5 cbr 1000 ------- 0 2.0 0.1 12 49
- 1.46 2 5 cbr 1000 ------- 0 2.0 0.1 12 49
+ 1.46 3 5 cbr 1000 ------- 0 3.0 0.2 12 50
- 1.46 3 5 cbr 1000 ------- 0 3.0 0.2 12 50
+ 1.46 4 5 cbr 1000 ------- 0 4.0 0.3 12 51
- 1.46 4 5 cbr 1000 ------- 0 4.0 0.3 12 51
c 1.460004 4 5 cbr 1014 ------- 0 1.0 0.0 12 48
c 1.460004 3 5 cbr 1014 ------- 0 1.0 0.0 12 48
c 1.460004 2 5 cbr 1014 ------- 0 1.0 0.0 12 48
c 1.460004 1 5 cbr 1014 ------- 0 2.0 0.1 12 49
c 1.460136 3 5 cbr 1014 ------- 0 4.0 0.3 12 51
c 1.460136 2 5 cbr 1014 ------- 0 4.0 0.3 12 51
c 1.460136 1 5 cbr 1014 ------- 0 4.0 0.3 12 51
c 1.460136 4 5 cbr 1014 ------- 0 3.0 0.2 12 50
r 1.46838 5 0 cbr 1000 ------- 0 4.0 0.3 12 51
c 1.46848 2 5 cbr 1014 ------- 0 3.0 0.2 12 50
c 1.46848 1 5 cbr 1014 ------- 0 3.0 0.2 12 50
c 1.46848 3 5 cbr 1014 ------- 0 2.0 0.1 12 49
r 1.477748 5 0 cbr 1000 ------- 0 3.0 0.2 12 50
c 1.477848 1 5 cbr 1014 ------- 0 2.0 0.1 12 49
c 1.477848 2 5 cbr 1014 ------- 0 1.0 0.0 12 48
r 1.487116 5 0 cbr 1000 ------- 0 1.0 0.0 12 48
r 1.495328 5 0 cbr 1000 ------- 0 2.0 0.1 12 49
h 1.54 1 5 cbr 1000 ------- 0 1.0 0.0 13 52
h 1.54 2 5 cbr 1000 ------- 0 2.0 0.1 13 53
h 1.54 3 5 cbr 1000 ------- 0 3.0 0.2 13 54
h 1.54 4 5 cbr 1000 ------- 0 4.0 0.3 13 55
+ 1.54 1 5 cbr 1000 ------- 0 1.0 0.0 13 52
- 1.54 1 5 cbr 1000 ------- 0 1.0 0.0 13 52
+ 1.54 2 5 cbr 1000 ------- 0 2.0 0.1 13 53
- 1.54 2 5 cbr 1000 ------- 0 2.0 0.1 13 53
+ 1.54 3 5 cbr 1000 ------- 0 3.0 0.2 13 54
- 1.54 3 5 cbr 1000 ------- 0 3.0 0.2 13 54
+ 1.54 4 5 cbr 1000 ------- 0 4.0 0.3 13 55
- 1.54 4 5 cbr 1000 ------- 0 4.0 0.3 13 55
c 1.540004 4 5 cbr 1014 ------- 0 1.0 0.0 13 52
c 1.540004 3 5 cbr 1014 ------- 0 1.0 0.0 13 52
c 1.540004 2 5 cbr 1014 ------- 0 1.0 0.0 13 52
c 1.540004 1 5 cbr 1014 ------- 0 2.0 0.1 13 53
r 1.548248 5 0 cbr 1000 ------- 0 1.0 0.0 13 52
c 1.548348 3 5 cbr 1014 ------- 0 4.0 0.3 13 55
c 1.548348 2 5 cbr 1014 ------- 0 4.0 0.3 13 55
c 1.548348 4 5 cbr 1014 ------- 0 3.0 0.2 13 54
r 1.557104 5 0 cbr 1000 ------- 0 4.0 0.3 13 55
c 1.557204 2 5 cbr 1014 ------- 0 3.0 0.2 13 54
c 1.557204 3 5 cbr 1014 ------- 0 2.0 0.1 13 53
r 1.567496 5 0 cbr 1000 ------- 0 3.0 0.2 13 54
r 1.575708 5 0 cbr 1000 ------- 0 2.0 0.1 13 53
h 1.62 1 5 cbr 1000 ------- 0 1.0 0.0 14 56
h 1.62 2 5 cbr 1000 ------- 0 2.0 0.1 14 57
h 1.62 3 5 cbr 1000 ------- 0 3.0 0.2 14 58
h 1.62 4 5 cbr 1000 ------- 0 4.0 0.3 14 59
+ 1.62 1 5 cbr 1000 ------- 0 1.0 0.0 14 56
- 1.62 1 5 cbr 1000 ------- 0 1.0 0.0 14 56
+ 1.62 2 5 cbr 1000 ------- 0 2.0 0.1 14 57
- 1.62 2 5 cbr 1000 ------- 0 2.0 0.1 14 57
+ 1.62 3 5 cbr 1000 ------- 0 3.0 0.2 14 58
- 1.62 3 5 cbr 1000 ------- 0 3.0 0.2 14 58
+ 1.62 4 5 cbr 1000 ------- 0 4.0 0.3 14 59
- 1.62 4 5 cbr 1000 ------- 0 4.0 0.3 14 59
c 1.620004 4 5 cbr 1014 ------- 0 1.0 0.0 14 56
c 1.620004 3 5 cbr 1014 ------- 0 1.0 0.0 14 56
c 1.620004 2 5 cbr 1014 ------- 0 1.0 0.0 14 56
c 1.620004 1 5 cbr 1014 ------- 0 2.0 0.1 14 57
c 1.620648 3 5 cbr 1014 ------- 0 4.0 0.3 14 59
c 1.620648 2 5 cbr 1014 ------- 0 4.0 0.3 14 59
c 1.620648 1 5 cbr 1014 ------- 0 4.0 0.3 14 59
c 1.620648 4 5 cbr 1014 ------- 0 3.0 0.2 14 58
r 1.628892 5 0 cbr 1000 ------- 0 1.0 0.0 14 56
c 1.628992 3 5 cbr 1014 ------- 0 4.0 0.3 14 59
c 1.628992 2 5 cbr 1014 ------- 0 4.0 0.3 14 59
c 1.628992 4 5 cbr 1014 ------- 0 3.0 0.2 14 58
r 1.638772 5 0 cbr 1000 ------- 0 4.0 0.3 14 59
c 1.638872 2 5 cbr 1014 ------- 0 3.0 0.2 14 58
c 1.638872 3 5 cbr 1014 ------- 0 2.0 0.1 14 57
r 1.650188 5 0 cbr 1000 ------- 0 3.0 0.2 14 58
r 1.6584 5 0 cbr 1000 ------- 0 2.0 0.1 14 57
h 1.7 1 5 cbr 1000 ------- 0 1.0 0.0 15 60
h 1.7 2 5 cbr 1000 ------- 0 2.0 0.1 15 61
h 1.7 3 5 cbr 1000 ------- 0 3.0 0.2 15 62
h 1.7 4 5 cbr 1000 ------- 0 4.0 0.3 15 63
+ 1.7 1 5 cbr 1000 ------- 0 1.0 0.0 15 60
- 1.7 1 5 cbr 1000 ------- 0 1.0 0.0 15 60
+ 1.7 2 5 cbr 1000 ------- 0 2.0 0.1 15 61
- 1.7 2 5 cbr 1000 ------- 0 2.0 0.1 15 61
+ 1.7 3 5 cbr 1000 ------- 0 3.0 0.2 15 62
- 1.7 3 5 cbr 1000 ------- 0 3.0 0.2 15 62
+ 1.7 4 5 cbr 1000 ------- 0 4.0 0.3 15 63
- 1.7 4 5 cbr 1000 ------- 0 4.0 0.3 15 63
c 1.700004 4 5 cbr 1014 ------- 0 1.0 0.0 15 60
c 1.700004 3 5 cbr 1014 ------- 0 1.0 0.0 15 60
c 1.700004 2 5 cbr 1014 ------- 0 1.0 0.0 15 60
c 1.700004 1 5 cbr 1014 ------- 0 2.0 0.1 15 61
c 1.700648 3 5 cbr 1014 ------- 0 4.0 0.3 15 63
c 1.700648 2 5 cbr 1014 ------- 0 4.0 0.3 15 63
c 1.700648 1 5 cbr 1014 ------- 0 4.0 0.3 15 63
c 1.700648 4 5 cbr 1014 ------- 0 3.0 0.2 15 62
c 1.701292 4 5 cbr 1014 ------- 0 2.0 0.1 15 61
c 1.701292 2 5 cbr 1014 ------- 0 4.0 0.3 15 63
c 1.702316 1 5 cbr 1014 ------- 0 3.0 0.2 15 62
c 1.702316 3 5 cbr 1014 ------- 0 1.0 0.0 15 60
c 1.702448 3 5 cbr 1014 ------- 0 1.0 0.0 15 60
c 1.702448 1 5 cbr 1014 ------- 0 3.0 0.2 15 62
c 1.70258 1 5 cbr 1014 ------- 0 3.0 0.2 15 62
c 1.70258 3 5 cbr 1014 ------- 0 1.0 0.0 15 60
r 1.71236 5 0 cbr 1000 ------- 0 1.0 0.0 15 60
c 1.71246 3 5 cbr 1014 ------- 0 4.0 0.3 15 63
c 1.71246 2 5 cbr 1014 ------- 0 4.0 0.3 15 63
c 1.71246 4 5 cbr 1014 ------- 0 3.0 0.2 15 62
r 1.725824 5 0 cbr 1000 ------- 0 2.0 0.1 15 61
r 1.734036 5 0 cbr 1000 ------- 0 4.0 0.3 15 63
r 1.743232 5 0 cbr 1000 ------- 0 3.0 0.2 15 62
h 1.78 1 5 cbr 1000 ------- 0 1.0 0.0 16 64
h 1.78 2 5 cbr 1000 ------- 0 2.0 0.1 16 65
h 1.78 3 5 cbr 1000 ------- 0 3.0 0.2 16 66
h 1.78 4 5 cbr 1000 ------- 0 4.0 0.3 16 67
+ 1.78 1 5 cbr 1000 ------- 0 1.0 0.0 16 64
- 1.78 1 5 cbr 1000 ------- 0 1.0 0.0 16 64
+ 1.78 2 5 cbr 1000 ------- 0 2.0 0.1 16 65
- 1.78 2 5 cbr 1000 ------- 0 2.0 0.1 16 65
+ 1.78 3 5 cbr 1000 ------- 0 3.0 0.2 16 66
- 1.78 3 5 cbr 1000 ------- 0 3.0 0.2 16 66
+ 1.78 4 5 cbr 1000 ------- 0 4.0 0.3 16 67
- 1.78 4 5 cbr 1000 ------- 0 4.0 0.3 16 67
c 1.780004 4 5 cbr 1014 ------- 0 1.0 0.0 16 64
c 1.780004 3 5 cbr 1014 ------- 0 1.0 0.0 16 64
c 1.780004 2 5 cbr 1014 ------- 0 1.0 0.0 16 64
c 1.780004 1 5 cbr 1014 ------- 0 2.0 0.1 16 65
c 1.780136 3 5 cbr 1014 ------- 0 4.0 0.3 16 67
c 1.780136 1 5 cbr 1014 ------- 0 4.0 0.3 16 67
c 1.780136 4 5 cbr 1014 ------- 0 3.0 0.2 16 66
c 1.780268 4 5 cbr 1014 ------- 0 3.0 0.2 16 66
c 1.780268 1 5 cbr 1014 ------- 0 3.0 0.2 16 66
c 1.780268 3 5 cbr 1014 ------- 0 1.0 0.0 16 64
r 1.78876 5 0 cbr 1000 ------- 0 2.0 0.1 16 65
c 1.78886 3 5 cbr 1014 ------- 0 4.0 0.3 16 67
c 1.78886 1 5 cbr 1014 ------- 0 4.0 0.3 16 67
c 1.78886 4 5 cbr 1014 ------- 0 3.0 0.2 16 66
r 1.799152 5 0 cbr 1000 ------- 0 3.0 0.2 16 66
c 1.799252 1 5 cbr 1014 ------- 0 4.0 0.3 16 67
c 1.799252 4 5 cbr 1014 ------- 0 1.0 0.0 16 64
r 1.80852 5 0 cbr 1000 ------- 0 1.0 0.0 16 64
r 1.816732 5 0 cbr 1000 ------- 0 4.0 0.3 16 67
h 1.86 1 5 cbr 1000 ------- 0 1.0 0.0 17 68
h 1.86 2 5 cbr 1000 ------- 0 2.0 0.1 17 69
h 1.86 3 5 cbr 1000 ------- 0 3.0 0.2 17 70
h 1.86 4 5 cbr 1000 ------- 0 4.0 0.3 17 71
+ 1.86 1 5 cbr 1000 ------- 0 1.0 0.0 17 68
- 1.86 1 5 cbr 1000 ------- 0 1.0 0.0 17 68
+ 1.86 2 5 cbr 1000 ------- 0 2.0 0.1 17 69
- 1.86 2 5 cbr 1000 ------- 0 2.0 0.1 17 69
+ 1.86 3 5 cbr 1000 ------- 0 3.0 0.2 17 70
- 1.86 3 5 cbr 1000 ------- 0 3.0 0.2 17 70
+ 1.86 4 5 cbr 1000 ------- 0 4.0 0.3 17 71
- 1.86 4 5 cbr 1000 ------- 0 4.0 0.3 17 71
c 1.860004 4 5 cbr 1014 ------- 0 1.0 0.0 17 68
c 1.860004 3 5 cbr 1014 ------- 0 1.0 0.0 17 68
c 1.860004 2 5 cbr 1014 ------- 0 1.0 0.0 17 68
c 1.860004 1 5 cbr 1014 ------- 0 2.0 0.1 17 69
r 1.868248 5 0 cbr 1000 ------- 0 3.0 0.2 17 70
c 1.868348 2 5 cbr 1014 ------- 0 4.0 0.3 17 71
c 1.868348 1 5 cbr 1014 ------- 0 4.0 0.3 17 71
c 1.868348 4 5 cbr 1014 ------- 0 2.0 0.1 17 69
r 1.877104 5 0 cbr 1000 ------- 0 2.0 0.1 17 69
c 1.877204 1 5 cbr 1014 ------- 0 4.0 0.3 17 71
c 1.877204 4 5 cbr 1014 ------- 0 1.0 0.0 17 68
r 1.885448 5 0 cbr 1000 ------- 0 1.0 0.0 17 68
r 1.89366 5 0 cbr 1000 ------- 0 4.0 0.3 17 71
h 1.94 1 5 cbr 1000 ------- 0 1.0 0.0 18 72
h 1.94 2 5 cbr 1000 ------- 0 2.0 0.1 18 73
h 1.94 3 5 cbr 1000 ------- 0 3.0 0.2 18 74
h 1.94 4 5 cbr 1000 ------- 0 4.0 0.3 18 75
+ 1.94 1 5 cbr 1000 ------- 0 1.0 0.0 18 72
- 1.94 1 5 cbr 1000 ------- 0 1.0 0.0 18 72
+ 1.94 2 5 cbr 1000 ------- 0 2.0 0.1 18 73
- 1.94 2 5 cbr 1000 ------- 0 2.0 0.1 18 73
+ 1.94 3 5 cbr 1000 ------- 0 3.0 0.2 18 74
- 1.94 3 5 cbr 1000 ------- 0 3.0 0.2 18 74
+ 1.94 4 5 cbr 1000 ------- 0 4.0 0.3 18 75
- 1.94 4 5 cbr 1000 ------- 0 4.0 0.3 18 75
c 1.940004 4 5 cbr 1014 ------- 0 1.0 0.0 18 72
c 1.940004 3 5 cbr 1014 ------- 0 1.0 0.0 18 72
c 1.940004 2 5 cbr 1014 ------- 0 1.0 0.0 18 72
c 1.940004 1 5 cbr 1014 ------- 0 2.0 0.1 18 73
c 1.940136 1 5 cbr 1014 ------- 0 4.0 0.3 18 75
c 1.940136 4 5 cbr 1014 ------- 0 1.0 0.0 18 72
c 1.940648 2 5 cbr 1014 ------- 0 3.0 0.2 18 74
c 1.940648 3 5 cbr 1014 ------- 0 2.0 0.1 18 73
c 1.94078 1 5 cbr 1014 ------- 0 2.0 0.1 18 73
c 1.94078 2 5 cbr 1014 ------- 0 1.0 0.0 18 72
c 1.941292 3 5 cbr 1014 ------- 0 4.0 0.3 18 75
c 1.941292 4 5 cbr 1014 ------- 0 3.0 0.2 18 74
r 1.95056 5 0 cbr 1000 ------- 0 2.0 0.1 18 73
c 1.95066 3 5 cbr 1014 ------- 0 4.0 0.3 18 75
c 1.95066 1 5 cbr 1014 ------- 0 4.0 0.3 18 75
c 1.95066 4 5 cbr 1014 ------- 0 3.0 0.2 18 74
r 1.961464 5 0 cbr 1000 ------- 0 4.0 0.3 18 75
c 1.961564 1 5 cbr 1014 ------- 0 3.0 0.2 18 74
c 1.961564 3 5 cbr 1014 ------- 0 1.0 0.0 18 72
r 1.975952 5 0 cbr 1000 ------- 0 3.0 0.2 18 74
r 1.984164 5 0 cbr 1000 ------- 0 1.0 0.0 18 72
h 2.02 1 5 cbr 1000 ------- 0 1.0 0.0 19 76
h 2.02 2 5 cbr 1000 ------- 0 2.0 0.1 19 77
h 2.02 3 5 cbr 1000 ------- 0 3.0 0.2 19 78
h 2.02 4 5 cbr 1000 ------- 0 4.0 0.3 19 79
+ 2.02 1 5 cbr 1000 ------- 0 1.0 0.0 19 76
- 2.02 1 5 cbr 1000 ------- 0 1.0 0.0 19 76
+ 2.02 2 5 cbr 1000 ------- 0 2.0 0.1 19 77
- 2.02 2 5 cbr 1000 ------- 0 2.0 0.1 19 77
+ 2.02 3 5 cbr 1000 ------- 0 3.0 0.2 19 78
- 2.02 3 5 cbr 1000 ------- 0 3.0 0.2 19 78
+ 2.02 4 5 cbr 1000 ------- 0 4.0 0.3 19 79
- 2.02 4 5 cbr 1000 ------- 0 4.0 0.3 19 79
c 2.020004 4 5 cbr 1014 ------- 0 1.0 0.0 19 76
c 2.020004 3 5 cbr 1014 ------- 0 1.0 0.0 19 76
c 2.020004 2 5 cbr 1014 ------- 0 1.0 0.0 19 76
c 2.020004 1 5 cbr 1014 ------- 0 2.0 0.1 19 77
c 2.020136 2 5 cbr 1014 ------- 0 4.0 0.3 19 79
c 2.020136 1 5 cbr 1014 ------- 0 4.0 0.3 19 79
c 2.020136 4 5 cbr 1014 ------- 0 2.0 0.1 19 77
r 2.02876 5 0 cbr 1000 ------- 0 3.0 0.2 19 78
c 2.02886 2 5 cbr 1014 ------- 0 4.0 0.3 19 79
c 2.02886 1 5 cbr 1014 ------- 0 4.0 0.3 19 79
c 2.02886 4 5 cbr 1014 ------- 0 2.0 0.1 19 77
r 2.037616 5 0 cbr 1000 ------- 0 1.0 0.0 19 76
c 2.037716 2 5 cbr 1014 ------- 0 4.0 0.3 19 79
c 2.037716 4 5 cbr 1014 ------- 0 2.0 0.1 19 77
r 2.050568 5 0 cbr 1000 ------- 0 4.0 0.3 19 79
r 2.05878 5 0 cbr 1000 ------- 0 2.0 0.1 19 77
h 2.1 1 5 cbr 1000 ------- 0 1.0 0.0 20 80
h 2.1 2 5 cbr 1000 ------- 0 2.0 0.1 20 81
h 2.1 3 5 cbr 1000 ------- 0 3.0 0.2 20 82
h 2.1 4 5 cbr 1000 ------- 0 4.0 0.3 20 83
+ 2.1 1 5 cbr 1000 ------- 0 1.0 0.0 20 80
- 2.1 1 5 cbr 1000 ------- 0 1.0 0.0 20 80
+ 2.1 2 5 cbr 1000 ------- 0 2.0 0.1 20 81
- 2.1 2 5 cbr 1000 ------- 0 2.0 0.1 20 81
+ 2.1 3 5 cbr 1000 ------- 0 3.0 0.2 20 82
- 2.1 3 5 cbr 1000 ------- 0 3.0 0.2 20 82
+ 2.1 4 5 cbr 1000 ------- 0 4.0 0.3 20 83
- 2.1 4 5 cbr 1000 ------- 0 4.0 0.3 20 83
c 2.100004 4 5 cbr 1014 ------- 0 1.0 0.0 20 80
c 2.100004 3 5 cbr 1014 ------- 0 1.0 0.0 20 80
c 2.100004 2 5 cbr 1014 ------- 0 1.0 0.0 20 80
c 2.100004 1 5 cbr 1014 ------- 0 2.0 0.1 20 81
c 2.100136 2 5 cbr 1014 ------- 0 4.0 0.3 20 83
c 2.100136 4 5 cbr 1014 ------- 0 2.0 0.1 20 81
c 2.100648 1 5 cbr 1014 ------- 0 3.0 0.2 20 82
c 2.100648 3 5 cbr 1014 ------- 0 1.0 0.0 20 80
r 2.108892 5 0 cbr 1000 ------- 0 2.0 0.1 20 81
c 2.108992 3 5 cbr 1014 ------- 0 4.0 0.3 20 83
c 2.108992 1 5 cbr 1014 ------- 0 4.0 0.3 20 83
c 2.108992 4 5 cbr 1014 ------- 0 3.0 0.2 20 82
r 2.117748 5 0 cbr 1000 ------- 0 1.0 0.0 20 80
c 2.117848 3 5 cbr 1014 ------- 0 4.0 0.3 20 83
c 2.117848 4 5 cbr 1014 ------- 0 3.0 0.2 20 82
r 2.128652 5 0 cbr 1000 ------- 0 4.0 0.3 20 83
r 2.136864 5 0 cbr 1000 ------- 0 3.0 0.2 20 82
h 2.18 1 5 cbr 1000 ------- 0 1.0 0.0 21 84
h 2.18 2 5 cbr 1000 ------- 0 2.0 0.1 21 85
h 2.18 3 5 cbr 1000 ------- 0 3.0 0.2 21 86
h 2.18 4 5 cbr 1000 ------- 0 4.0 0.3 21 87
+ 2.18 1 5 cbr 1000 ------- 0 1.0 0.0 21 84
- 2.18 1 5 cbr 1000 ------- 0 1.0 0.0 21 84
+ 2.18 2 5 cbr 1000 ------- 0 2.0 0.1 21 85
- 2.18 2 5 cbr 1000 ------- 0 2.0 0.1 21 85
+ 2.18 3 5 cbr 1000 ------- 0 3.0 0.2 21 86
- 2.18 3 5 cbr 1000 ------- 0 3.0 0.2 21 86
+ 2.18 4 5 cbr 1000 ------- 0 4.0 0.3 21 87
- 2.18 4 5 cbr 1000 ------- 0 4.0 0.3 21 87
c 2.180004 4 5 cbr 1014 ------- 0 1.0 0.0 21 84
c 2.180004 3 5 cbr 1014 ------- 0 1.0 0.0 21 84
c 2.180004 2 5 cbr 1014 ------- 0 1.0 0.0 21 84
c 2.180004 1 5 cbr 1014 ------- 0 2.0 0.1 21 85
c 2.180136 1 5 cbr 1014 ------- 0 4.0 0.3 21 87
c 2.180136 4 5 cbr 1014 ------- 0 1.0 0.0 21 84
c 2.180648 2 5 cbr 1014 ------- 0 3.0 0.2 21 86
c 2.180648 3 5 cbr 1014 ------- 0 2.0 0.1 21 85
c 2.181292 4 5 cbr 1014 ------- 0 1.0 0.0 21 84
c 2.181292 3 5 cbr 1014 ------- 0 1.0 0.0 21 84
c 2.181292 1 5 cbr 1014 ------- 0 4.0 0.3 21 87
r 2.189536 5 0 cbr 1000 ------- 0 3.0 0.2 21 86
c 2.189636 2 5 cbr 1014 ------- 0 4.0 0.3 21 87
c 2.189636 1 5 cbr 1014 ------- 0 4.0 0.3 21 87
c 2.189636 4 5 cbr 1014 ------- 0 2.0 0.1 21 85
r 2.201464 5 0 cbr 1000 ------- 0 2.0 0.1 21 85
c 2.201564 1 5 cbr 1014 ------- 0 4.0 0.3 21 87
c 2.201564 4 5 cbr 1014 ------- 0 1.0 0.0 21 84
r 2.221072 5 0 cbr 1000 ------- 0 4.0 0.3 21 87
r 2.229284 5 0 cbr 1000 ------- 0 1.0 0.0 21 84
h 2.26 1 5 cbr 1000 ------- 0 1.0 0.0 22 88
h 2.26 2 5 cbr 1000 ------- 0 2.0 0.1 22 89
h 2.26 3 5 cbr 1000 ------- 0 3.0 0.2 22 90
h 2.26 4 5 cbr 1000 ------- 0 4.0 0.3 22 91
+ 2.26 1 5 cbr 1000 ------- 0 1.0 0.0 22 88
- 2.26 1 5 cbr 1000 ------- 0 1.0 0.0 22 88
+ 2.26 2 5 cbr 1000 ------- 0 2.0 0.1 22 89
- 2.26 2 5 cbr 1000 ------- 0 2.0 0.1 22 89
+ 2.26 3 5 cbr 1000 ------- 0 3.0 0.2 22 90
- 2.26 3 5 cbr 1000 ------- 0 3.0 0.2 22 90
+ 2.26 4 5 cbr 1000 ------- 0 4.0 0.3 22 91