V -t * -v 1.0a5 -a 0
A -t * -n 1 -p 0 -o 0x7fffffff -c 30 -a 1
A -t * -h 1 -m 1073741823 -s 0
n -t * -a 4 -s 4 -S UP -v circle -c black -i black
n -t * -a 0 -s 0 -S UP -v circle -c black -i black
n -t * -a 1 -s 1 -S UP -v circle -c black -i black
n -t * -a 6 -s 6 -S UP -v circle -c black -i black
n -t * -a 2 -s 2 -S UP -v circle -c black -i black
n -t * -a 3 -s 3 -S UP -v circle -c black -i black
l -t * -s 6 -d 0 -S UP -r 10000000 -D 0.002 -c black -o right
X -t * -n 5 -r 1Mb -D 0ms -o left
L -t * -s 5 -d 0 -o up
L -t * -s 5 -d 1 -o down
L -t * -s 5 -d 2 -o up
L -t * -s 5 -d 3 -o down
L -t * -s 5 -d 4 -o up
h -t 0.5 -s 1 -d 5 -p cbr -e 1000 -c 0 -i 0 -a 0 -x {1.0 0.0 0 ------- null}
h -t 0.5 -s 2 -d 5 -p cbr -e 1000 -c 0 -i 1 -a 0 -x {2.0 0.1 0 ------- null}
h -t 0.5 -s 3 -d 5 -p cbr -e 1000 -c 0 -i 2 -a 0 -x {3.0 0.2 0 ------- null}
h -t 0.5 -s 4 -d 5 -p cbr -e 1000 -c 0 -i 3 -a 0 -x {4.0 0.3 0 ------- null}
+ -t 0.5 -s 1 -d 5 -p cbr -e 1000 -c 0 -i 0 -a 0 -x {1.0 0.0 0 ------- null}
- -t 0.5 -s 1 -d 5 -p cbr -e 1000 -c 0 -i 0 -a 0 -x {1.0 0.0 0 ------- null}
h -t 0.5 -s 1 -d 5 -p cbr -e 1000 -c 0 -i 0 -a 0 -x {1.0 0.0 -1 ------- null}
+ -t 0.5 -s 2 -d 5 -p cbr -e 1000 -c 0 -i 1 -a 0 -x {2.0 0.1 0 ------- null}
- -t 0.5 -s 2 -d 5 -p cbr -e 1000 -c 0 -i 1 -a 0 -x {2.0 0.1 0 ------- null}
h -t 0.5 -s 2 -d 5 -p cbr -e 1000 -c 0 -i 1 -a 0 -x {2.0 0.1 -1 ------- null}
+ -t 0.5 -s 3 -d 5 -p cbr -e 1000 -c 0 -i 2 -a 0 -x {3.0 0.2 0 ------- null}
- -t 0.5 -s 3 -d 5 -p cbr -e 1000 -c 0 -i 2 -a 0 -x {3.0 0.2 0 ------- null}
h -t 0.5 -s 3 -d 5 -p cbr -e 1000 -c 0 -i 2 -a 0 -x {3.0 0.2 -1 ------- null}
+ -t 0.5 -s 4 -d 5 -p cbr -e 1000 -c 0 -i 3 -a 0 -x {4.0 0.3 0 ------- null}
- -t 0.5 -s 4 -d 5 -p cbr -e 1000 -c 0 -i 3 -a 0 -x {4.0 0.3 0 ------- null}
h -t 0.5 -s 4 -d 5 -p cbr -e 1000 -c 0 -i 3 -a 0 -x {4.0 0.3 -1 ------- null}
r -t 0.508248 -s 5 -d 0 -p cbr -e 1000 -c 0 -i 1 -a 0 -x {2.0 0.1 0 ------- null}
r -t 0.517748 -s 5 -d 0 -p cbr -e 1000 -c 0 -i 3 -a 0 -x {4.0 0.3 0 ------- null}
r -t 0.526604 -s 5 -d 0 -p cbr -e 1000 -c 0 -i 2 -a 0 -x {3.0 0.2 0 ------- null}
r -t 0.534816 -s 5 -d 0 -p cbr -e 1000 -c 0 -i 0 -a 0 -x {1.0 0.0 0 ------- null}
h -t 0.58 -s 1 -d 5 -p cbr -e 1000 -c 0 -i 4 -a 0 -x {1.0 0.0 1 ------- null}
h -t 0.58 -s 2 -d 5 -p cbr -e 1000 -c 0 -i 5 -a 0 -x {2.0 0.1 1 ------- null}
h -t 0.58 -s 3 -d 5 -p cbr -e 1000 -c 0 -i 6 -a 0 -x {3.0 0.2 1 ------- null}
h -t 0.58 -s 4 -d 5 -p cbr -e 1000 -c 0 -i 7 -a 0 -x {4.0 0.3 1 ------- null}
+ -t 0.58 -s 1 -d 5 -p cbr -e 1000 -c 0 -i 4 -a 0 -x {1.0 0.0 1 ------- null}
- -t 0.58 -s 1 -d 5 -p cbr -e 1000 -c 0 -i 4 -a 0 -x {1.0 0.0 1 ------- null}
h -t 0.58 -s 1 -d 5 -p cbr -e 1000 -c 0 -i 4 -a 0 -x {1.0 0.0 -1 ------- null}
+ -t 0.58 -s 2 -d 5 -p cbr -e 1000 -c 0 -i 5 -a 0 -x {2.0 0.1 1 ------- null}
- -t 0.58 -s 2 -d 5 -p cbr -e 1000 -c 0 -i 5 -a 0 -x {2.0 0.1 1 ------- null}
h -t 0.58 -s 2 -d 5 -p cbr -e 1000 -c 0 -i 5 -a 0 -x {2.0 0.1 -1 ------- null}
+ -t 0.58 -s 3 -d 5 -p cbr -e 1000 -c 0 -i 6 -a 0 -x {3.0 0.2 1 ------- null}
- -t 0.58 -s 3 -d 5 -p cbr -e 1000 -c 0 -i 6 -a 0 -x {3.0 0.2 1 ------- null}
h -t 0.58 -s 3 -d 5 -p cbr -e 1000 -c 0 -i 6 -a 0 -x {3.0 0.2 -1 ------- null}
+ -t 0.58 -s 4 -d 5 -p cbr -e 1000 -c 0 -i 7 -a 0 -x {4.0 0.3 1 ------- null}
- -t 0.58 -s 4 -d 5 -p cbr -e 1000 -c 0 -i 7 -a 0 -x {4.0 0.3 1 ------- null}
h -t 0.58 -s 4 -d 5 -p cbr -e 1000 -c 0 -i 7 -a 0 -x {4.0 0.3 -1 ------- null}
r -t 0.58838 -s 5 -d 0 -p cbr -e 1000 -c 0 -i 7 -a 0 -x {4.0 0.3 1 ------- null}
r -t 0.597748 -s 5 -d 0 -p cbr -e 1000 -c 0 -i 5 -a 0 -x {2.0 0.1 1 ------- null}
r -t 0.609676 -s 5 -d 0 -p cbr -e 1000 -c 0 -i 6 -a 0 -x {3.0 0.2 1 ------- null}
r -t 0.617888 -s 5 -d 0 -p cbr -e 1000 -c 0 -i 4 -a 0 -x {1.0 0.0 1 ------- null}
h -t 0.66 -s 1 -d 5 -p cbr -e 1000 -c 0 -i 8 -a 0 -x {1.0 0.0 2 ------- null}
h -t 0.66 -s 2 -d 5 -p cbr -e 1000 -c 0 -i 9 -a 0 -x {2.0 0.1 2 ------- null}
h -t 0.66 -s 3 -d 5 -p cbr -e 1000 -c 0 -i 10 -a 0 -x {3.0 0.2 2 ------- null}
h -t 0.66 -s 4 -d 5 -p cbr -e 1000 -c 0 -i 11 -a 0 -x {4.0 0.3 2 ------- null}
+ -t 0.66 -s 1 -d 5 -p cbr -e 1000 -c 0 -i 8 -a 0 -x {1.0 0.0 2 ------- null}
- -t 0.66 -s 1 -d 5 -p cbr -e 1000 -c 0 -i 8 -a 0 -x {1.0 0.0 2 ------- null}
h -t 0.66 -s 1 -d 5 -p cbr -e 1000 -c 0 -i 8 -a 0 -x {1.0 0.0 -1 ------- null}
+ -t 0.66 -s 2 -d 5 -p cbr -e 1000 -c 0 -i 9 -a 0 -x {2.0 0.1 2 ------- null}
- -t 0.66 -s 2 -d 5 -p cbr -e 1000 -c 0 -i 9 -a 0 -x {2.0 0.1 2 ------- null}
h -t 0.66 -s 2 -d 5 -p cbr -e 1000 -c 0 -i 9 -a 0 -x {2.0 0.1 -1 ------- null}
+ -t 0.66 -s 3 -d 5 -p cbr -e 1000 -c 0 -i 10 -a 0 -x {3.0 0.2 2 ------- null}
- -t 0.66 -s 3 -d 5 -p cbr -e 1000 -c 0 -i 10 -a 0 -x {3.0 0.2 2 ------- null}
h -t 0.66 -s 3 -d 5 -p cbr -e 1000 -c 0 -i 10 -a 0 -x {3.0 0.2 -1 ------- null}
+ -t 0.66 -s 4 -d 5 -p cbr -e 1000 -c 0 -i 11 -a 0 -x {4.0 0.3 2 ------- null}
- -t 0.66 -s 4 -d 5 -p cbr -e 1000 -c 0 -i 11 -a 0 -x {4.0 0.3 2 ------- null}
h -t 0.66 -s 4 -d 5 -p cbr -e 1000 -c 0 -i 11 -a 0 -x {4.0 0.3 -1 ------- null}
r -t 0.66838 -s 5 -d 0 -p cbr -e 1000 -c 0 -i 8 -a 0 -x {1.0 0.0 2 ------- null}
r -t 0.676724 -s 5 -d 0 -p cbr -e 1000 -c 0 -i 9 -a 0 -x {2.0 0.1 2 ------- null}
r -t 0.687628 -s 5 -d 0 -p cbr -e 1000 -c 0 -i 11 -a 0 -x {4.0 0.3 2 ------- null}
r -t 0.69584 -s 5 -d 0 -p cbr -e 1000 -c 0 -i 10 -a 0 -x {3.0 0.2 2 ------- null}
h -t 0.74 -s 1 -d 5 -p cbr -e 1000 -c 0 -i 12 -a 0 -x {1.0 0.0 3 ------- null}
h -t 0.74 -s 2 -d 5 -p cbr -e 1000 -c 0 -i 13 -a 0 -x {2.0 0.1 3 ------- null}
h -t 0.74 -s 3 -d 5 -p cbr -e 1000 -c 0 -i 14 -a 0 -x {3.0 0.2 3 ------- null}
h -t 0.74 -s 4 -d 5 -p cbr -e 1000 -c 0 -i 15 -a 0 -x {4.0 0.3 3 ------- null}
+ -t 0.74 -s 1 -d 5 -p cbr -e 1000 -c 0 -i 12 -a 0 -x {1.0 0.0 3 ------- null}
- -t 0.74 -s 1 -d 5 -p cbr -e 1000 -c 0 -i 12 -a 0 -x {1.0 0.0 3 ------- null}
h -t 0.74 -s 1 -d 5 -p cbr -e 1000 -c 0 -i 12 -a 0 -x {1.0 0.0 -1 ------- null}
+ -t 0.74 -s 2 -d 5 -p cbr -e 1000 -c 0 -i 13 -a 0 -x {2.0 0.1 3 ------- null}
- -t 0.74 -s 2 -d 5 -p cbr -e 1000 -c 0 -i 13 -a 0 -x {2.0 0.1 3 ------- null}
h -t 0.74 -s 2 -d 5 -p cbr -e 1000 -c 0 -i 13 -a 0 -x {2.0 0.1 -1 ------- null}
+ -t 0.74 -s 3 -d 5 -p cbr -e 1000 -c 0 -i 14 -a 0 -x {3.0 0.2 3 ------- null}
- -t 0.74 -s 3 -d 5 -p cbr -e 1000 -c 0 -i 14 -a 0 -x {3.0 0.2 3 ------- null}
h -t 0.74 -s 3 -d 5 -p cbr -e 1000 -c 0 -i 14 -a 0 -x {3.0 0.2 -1 ------- null}
+ -t 0.74 -s 4 -d 5 -p cbr -e 1000 -c 0 -i 15 -a 0 -x {4.0 0.3 3 ------- null}
- -t 0.74 -s 4 -d 5 -p cbr -e 1000 -c 0 -i 15 -a 0 -x {4.0 0.3 3 ------- null}
h -t 0.74 -s 4 -d 5 -p cbr -e 1000 -c 0 -i 15 -a 0 -x {4.0 0.3 -1 ------- null}
r -t 0.748892 -s 5 -d 0 -p cbr -e 1000 -c 0 -i 13 -a 0 -x {2.0 0.1 3 ------- null}
r -t 0.75788 -s 5 -d 0 -p cbr -e 1000 -c 0 -i 15 -a 0 -x {4.0 0.3 3 ------- null}
r -t 0.77032 -s 5 -d 0 -p cbr -e 1000 -c 0 -i 14 -a 0 -x {3.0 0.2 3 ------- null}
r -t 0.778532 -s 5 -d 0 -p cbr -e 1000 -c 0 -i 12 -a 0 -x {1.0 0.0 3 ------- null}
h -t 0.82 -s 1 -d 5 -p cbr -e 1000 -c 0 -i 16 -a 0 -x {1.0 0.0 4 ------- null}
h -t 0.82 -s 2 -d 5 -p cbr -e 1000 -c 0 -i 17 -a 0 -x {2.0 0.1 4 ------- null}
h -t 0.82 -s 3 -d 5 -p cbr -e 1000 -c 0 -i 18 -a 0 -x {3.0 0.2 4 ------- null}
h -t 0.82 -s 4 -d 5 -p cbr -e 1000 -c 0 -i 19 -a 0 -x {4.0 0.3 4 ------- null}
+ -t 0.82 -s 1 -d 5 -p cbr -e 1000 -c 0 -i 16 -a 0 -x {1.0 0.0 4 ------- null}
- -t 0.82 -s 1 -d 5 -p cbr -e 1000 -c 0 -i 16 -a 0 -x {1.0 0.0 4 ------- null}
h -t 0.82 -s 1 -d 5 -p cbr -e 1000 -c 0 -i 16 -a 0 -x {1.0 0.0 -1 ------- null}
+ -t 0.82 -s 2 -d 5 -p cbr -e 1000 -c 0 -i 17 -a 0 -x {2.0 0.1 4 ------- null}
- -t 0.82 -s 2 -d 5 -p cbr -e 1000 -c 0 -i 17 -a 0 -x {2.0 0.1 4 ------- null}
h -t 0.82 -s 2 -d 5 -p cbr -e 1000 -c 0 -i 17 -a 0 -x {2.0 0.1 -1 ------- null}
+ -t 0.82 -s 3 -d 5 -p cbr -e 1000 -c 0 -i 18 -a 0 -x {3.0 0.2 4 ------- null}
- -t 0.82 -s 3 -d 5 -p cbr -e 1000 -c 0 -i 18 -a 0 -x {3.0 0.2 4 ------- null}
h -t 0.82 -s 3 -d 5 -p cbr -e 1000 -c 0 -i 18 -a 0 -x {3.0 0.2 -1 ------- null}
+ -t 0.82 -s 4 -d 5 -p cbr -e 1000 -c 0 -i 19 -a 0 -x {4.0 0.3 4 ------- null}
- -t 0.82 -s 4 -d 5 -p cbr -e 1000 -c 0 -i 19 -a 0 -x {4.0 0.3 4 ------- null}
h -t 0.82 -s 4 -d 5 -p cbr -e 1000 -c 0 -i 19 -a 0 -x {4.0 0.3 -1 ------- null}
r -t 0.828248 -s 5 -d 0 -p cbr -e 1000 -c 0 -i 17 -a 0 -x {2.0 0.1 4 ------- null}
r -t 0.836592 -s 5 -d 0 -p cbr -e 1000 -c 0 -i 18 -a 0 -x {3.0 0.2 4 ------- null}
r -t 0.847496 -s 5 -d 0 -p cbr -e 1000 -c 0 -i 19 -a 0 -x {4.0 0.3 4 ------- null}
r -t 0.855708 -s 5 -d 0 -p cbr -e 1000 -c 0 -i 16 -a 0 -x {1.0 0.0 4 ------- null}
h -t 0.9 -s 1 -d 5 -p cbr -e 1000 -c 0 -i 20 -a 0 -x {1.0 0.0 5 ------- null}
h -t 0.9 -s 2 -d 5 -p cbr -e 1000 -c 0 -i 21 -a 0 -x {2.0 0.1 5 ------- null}
h -t 0.9 -s 3 -d 5 -p cbr -e 1000 -c 0 -i 22 -a 0 -x {3.0 0.2 5 ------- null}
h -t 0.9 -s 4 -d 5 -p cbr -e 1000 -c 0 -i 23 -a 0 -x {4.0 0.3 5 ------- null}
+ -t 0.9 -s 1 -d 5 -p cbr -e 1000 -c 0 -i 20 -a 0 -x {1.0 0.0 5 ------- null}
- -t 0.9 -s 1 -d 5 -p cbr -e 1000 -c 0 -i 20 -a 0 -x {1.0 0.0 5 ------- null}
h -t 0.9 -s 1 -d 5 -p cbr -e 1000 -c 0 -i 20 -a 0 -x {1.0 0.0 -1 ------- null}
+ -t 0.9 -s 2 -d 5 -p cbr -e 1000 -c 0 -i 21 -a 0 -x {2.0 0.1 5 ------- null}
- -t 0.9 -s 2 -d 5 -p cbr -e 1000 -c 0 -i 21 -a 0 -x {2.0 0.1 5 ------- null}
h -t 0.9 -s 2 -d 5 -p cbr -e 1000 -c 0 -i 21 -a 0 -x {2.0 0.1 -1 ------- null}
+ -t 0.9 -s 3 -d 5 -p cbr -e 1000 -c 0 -i 22 -a 0 -x {3.0 0.2 5 ------- null}
- -t 0.9 -s 3 -d 5 -p cbr -e 1000 -c 0 -i 22 -a 0 -x {3.0 0.2 5 ------- null}
h -t 0.9 -s 3 -d 5 -p cbr -e 1000 -c 0 -i 22 -a 0 -x {3.0 0.2 -1 ------- null}
+ -t 0.9 -s 4 -d 5 -p cbr -e 1000 -c 0 -i 23 -a 0 -x {4.0 0.3 5 ------- null}
- -t 0.9 -s 4 -d 5 -p cbr -e 1000 -c 0 -i 23 -a 0 -x {4.0 0.3 5 ------- null}
h -t 0.9 -s 4 -d 5 -p cbr -e 1000 -c 0 -i 23 -a 0 -x {4.0 0.3 -1 ------- null}
r -t 0.90876 -s 5 -d 0 -p cbr -e 1000 -c 0 -i 20 -a 0 -x {1.0 0.0 5 ------- null}
r -t 0.918128 -s 5 -d 0 -p cbr -e 1000 -c 0 -i 21 -a 0 -x {2.0 0.1 5 ------- null}
r -t 0.930056 -s 5 -d 0 -p cbr -e 1000 -c 0 -i 22 -a 0 -x {3.0 0.2 5 ------- null}
r -t 0.938268 -s 5 -d 0 -p cbr -e 1000 -c 0 -i 23 -a 0 -x {4.0 0.3 5 ------- null}
h -t 0.98 -s 1 -d 5 -p cbr -e 1000 -c 0 -i 24 -a 0 -x {1.0 0.0 6 ------- null}
h -t 0.98 -s 2 -d 5 -p cbr -e 1000 -c 0 -i 25 -a 0 -x {2.0 0.1 6 ------- null}
h -t 0.98 -s 3 -d 5 -p cbr -e 1000 -c 0 -i 26 -a 0 -x {3.0 0.2 6 ------- null}
h -t 0.98 -s 4 -d 5 -p cbr -e 1000 -c 0 -i 27 -a 0 -x {4.0 0.3 6 ------- null}
+ -t 0.98 -s 1 -d 5 -p cbr -e 1000 -c 0 -i 24 -a 0 -x {1.0 0.0 6 ------- null}
- -t 0.98 -s 1 -d 5 -p cbr -e 1000 -c 0 -i 24 -a 0 -x {1.0 0.0 6 ------- null}
h -t 0.98 -s 1 -d 5 -p cbr -e 1000 -c 0 -i 24 -a 0 -x {1.0 0.0 -1 ------- null}
+ -t 0.98 -s 2 -d 5 -p cbr -e 1000 -c 0 -i 25 -a 0 -x {2.0 0.1 6 ------- null}
- -t 0.98 -s 2 -d 5 -p cbr -e 1000 -c 0 -i 25 -a 0 -x {2.0 0.1 6 ------- null}
h -t 0.98 -s 2 -d 5 -p cbr -e 1000 -c 0 -i 25 -a 0 -x {2.0 0.1 -1 ------- null}
+ -t 0.98 -s 3 -d 5 -p cbr -e 1000 -c 0 -i 26 -a 0 -x {3.0 0.2 6 ------- null}
- -t 0.98 -s 3 -d 5 -p cbr -e 1000 -c 0 -i 26 -a 0 -x {3.0 0.2 6 ------- null}
h -t 0.98 -s 3 -d 5 -p cbr -e 1000 -c 0 -i 26 -a 0 -x {3.0 0.2 -1 ------- null}
+ -t 0.98 -s 4 -d 5 -p cbr -e 1000 -c 0 -i 27 -a 0 -x {4.0 0.3 6 ------- null}
- -t 0.98 -s 4 -d 5 -p cbr -e 1000 -c 0 -i 27 -a 0 -x {4.0 0.3 6 ------- null}
h -t 0.98 -s 4 -d 5 -p cbr -e 1000 -c 0 -i 27 -a 0 -x {4.0 0.3 -1 ------- null}
r -t 0.98838 -s 5 -d 0 -p cbr -e 1000 -c 0 -i 25 -a 0 -x {2.0 0.1 6 ------- null}
r -t 0.997236 -s 5 -d 0 -p cbr -e 1000 -c 0 -i 27 -a 0 -x {4.0 0.3 6 ------- null}
r -t 1.007116 -s 5 -d 0 -p cbr -e 1000 -c 0 -i 24 -a 0 -x {1.0 0.0 6 ------- null}
r -t 1.015328 -s 5 -d 0 -p cbr -e 1000 -c 0 -i 26 -a 0 -x {3.0 0.2 6 ------- null}
h -t 1.06 -s 1 -d 5 -p cbr -e 1000 -c 0 -i 28 -a 0 -x {1.0 0.0 7 ------- null}
h -t 1.06 -s 2 -d 5 -p cbr -e 1000 -c 0 -i 29 -a 0 -x {2.0 0.1 7 ------- null}
h -t 1.06 -s 3 -d 5 -p cbr -e 1000 -c 0 -i 30 -a 0 -x {3.0 0.2 7 ------- null}
h -t 1.06 -s 4 -d 5 -p cbr -e 1000 -c 0 -i 31 -a 0 -x {4.0 0.3 7 ------- null}
+ -t 1.06 -s 1 -d 5 -p cbr -e 1000 -c 0 -i 28 -a 0 -x {1.0 0.0 7 ------- null}
- -t 1.06 -s 1 -d 5 -p cbr -e 1000 -c 0 -i 28 -a 0 -x {1.0 0.0 7 ------- null}
h -t 1.06 -s 1 -d 5 -p cbr -e 1000 -c 0 -i 28 -a 0 -x {1.0 0.0 -1 ------- null}
+ -t 1.06 -s 2 -d 5 -p cbr -e 1000 -c 0 -i 29 -a 0 -x {2.0 0.1 7 ------- null}
- -t 1.06 -s 2 -d 5 -p cbr -e 1000 -c 0 -i 29 -a 0 -x {2.0 0.1 7 ------- null}
h -t 1.06 -s 2 -d 5 -p cbr -e 1000 -c 0 -i 29 -a 0 -x {2.0 0.1 -1 ------- null}
+ -t 1.06 -s 3 -d 5 -p cbr -e 1000 -c 0 -i 30 -a 0 -x {3.0 0.2 7 ------- null}
- -t 1.06 -s 3 -d 5 -p cbr -e 1000 -c 0 -i 30 -a 0 -x {3.0 0.2 7 ------- null}
h -t 1.06 -s 3 -d 5 -p cbr -e 1000 -c 0 -i 30 -a 0 -x {3.0 0.2 -1 ------- null}
+ -t 1.06 -s 4 -d 5 -p cbr -e 1000 -c 0 -i 31 -a 0 -x {4.0 0.3 7 ------- null}
- -t 1.06 -s 4 -d 5 -p cbr -e 1000 -c 0 -i 31 -a 0 -x {4.0 0.3 7 ------- null}
h -t 1.06 -s 4 -d 5 -p cbr -e 1000 -c 0 -i 31 -a 0 -x {4.0 0.3 -1 ------- null}
r -t 1.06876 -s 5 -d 0 -p cbr -e 1000 -c 0 -i 31 -a 0 -x {4.0 0.3 7 ------- null}
r -t 1.077104 -s 5 -d 0 -p cbr -e 1000 -c 0 -i 28 -a 0 -x {1.0 0.0 7 ------- null}
r -t 1.089032 -s 5 -d 0 -p cbr -e 1000 -c 0 -i 30 -a 0 -x {3.0 0.2 7 ------- null}
r -t 1.097244 -s 5 -d 0 -p cbr -e 1000 -c 0 -i 29 -a 0 -x {2.0 0.1 7 ------- null}
h -t 1.14 -s 1 -d 5 -p cbr -e 1000 -c 0 -i 32 -a 0 -x {1.0 0.0 8 ------- null}
h -t 1.14 -s 2 -d 5 -p cbr -e 1000 -c 0 -i 33 -a 0 -x {2.0 0.1 8 ------- null}
h -t 1.14 -s 3 -d 5 -p cbr -e 1000 -c 0 -i 34 -a 0 -x {3.0 0.2 8 ------- null}
h -t 1.14 -s 4 -d 5 -p cbr -e 1000 -c 0 -i 35 -a 0 -x {4.0 0.3 8 ------- null}
+ -t 1.14 -s 1 -d 5 -p cbr -e 1000 -c 0 -i 32 -a 0 -x {1.0 0.0 8 ------- null}
- -t 1.14 -s 1 -d 5 -p cbr -e 1000 -c 0 -i 32 -a 0 -x {1.0 0.0 8 ------- null}
h -t 1.14 -s 1 -d 5 -p cbr -e 1000 -c 0 -i 32 -a 0 -x {1.0 0.0 -1 ------- null}
+ -t 1.14 -s 2 -d 5 -p cbr -e 1000 -c 0 -i 33 -a 0 -x {2.0 0.1 8 ------- null}
- -t 1.14 -s 2 -d 5 -p cbr -e 1000 -c 0 -i 33 -a 0 -x {2.0 0.1 8 ------- null}
h -t 1.14 -s 2 -d 5 -p cbr -e 1000 -c 0 -i 33 -a 0 -x {2.0 0.1 -1 ------- null}
+ -t 1.14 -s 3 -d 5 -p cbr -e 1000 -c 0 -i 34 -a 0 -x {3.0 0.2 8 ------- null}
- -t 1.14 -s 3 -d 5 -p cbr -e 1000 -c 0 -i 34 -a 0 -x {3.0 0.2 8 ------- null}
h -t 1.14 -s 3 -d 5 -p cbr -e 1000 -c 0 -i 34 -a 0 -x {3.0 0.2 -1 ------- null}
+ -t 1.14 -s 4 -d 5 -p cbr -e 1000 -c 0 -i 35 -a 0 -x {4.0 0.3 8 ------- null}
- -t 1.14 -s 4 -d 5 -p cbr -e 1000 -c 0 -i 35 -a 0 -x {4.0 0.3 8 ------- null}
h -t 1.14 -s 4 -d 5 -p cbr -e 1000 -c 0 -i 35 -a 0 -x {4.0 0.3 -1 ------- null}
r -t 1.149536 -s 5 -d 0 -p cbr -e 1000 -c 0 -i 35 -a 0 -x {4.0 0.3 8 ------- null}
r -t 1.159416 -s 5 -d 0 -p cbr -e 1000 -c 0 -i 32 -a 0 -x {1.0 0.0 8 ------- null}
r -t 1.168784 -s 5 -d 0 -p cbr -e 1000 -c 0 -i 34 -a 0 -x {3.0 0.2 8 ------- null}
r -t 1.176996 -s 5 -d 0 -p cbr -e 1000 -c 0 -i 33 -a 0 -x {2.0 0.1 8 ------- null}
h -t 1.22 -s 1 -d 5 -p cbr -e 1000 -c 0 -i 36 -a 0 -x {1.0 0.0 9 ------- null}
h -t 1.22 -s 2 -d 5 -p cbr -e 1000 -c 0 -i 37 -a 0 -x {2.0 0.1 9 ------- null}
h -t 1.22 -s 3 -d 5 -p cbr -e 1000 -c 0 -i 38 -a 0 -x {3.0 0.2 9 ------- null}
h -t 1.22 -s 4 -d 5 -p cbr -e 1000 -c 0 -i 39 -a 0 -x {4.0 0.3 9 ------- null}
+ -t 1.22 -s 1 -d 5 -p cbr -e 1000 -c 0 -i 36 -a 0 -x {1.0 0.0 9 ------- null}
- -t 1.22 -s 1 -d 5 -p cbr -e 1000 -c 0 -i 36 -a 0 -x {1.0 0.0 9 ------- null}
h -t 1.22 -s 1 -d 5 -p cbr -e 1000 -c 0 -i 36 -a 0 -x {1.0 0.0 -1 ------- null}
+ -t 1.22 -s 2 -d 5 -p cbr -e 1000 -c 0 -i 37 -a 0 -x {2.0 0.1 9 ------- null}
- -t 1.22 -s 2 -d 5 -p cbr -e 1000 -c 0 -i 37 -a 0 -x {2.0 0.1 9 ------- null}
h -t 1.22 -s 2 -d 5 -p cbr -e 1000 -c 0 -i 37 -a 0 -x {2.0 0.1 -1 ------- null}
+ -t 1.22 -s 3 -d 5 -p cbr -e 1000 -c 0 -i 38 -a 0 -x {3.0 0.2 9 ------- null}
- -t 1.22 -s 3 -d 5 -p cbr -e 1000 -c 0 -i 38 -a 0 -x {3.0 0.2 9 ------- null}
h -t 1.22 -s 3 -d 5 -p cbr -e 1000 -c 0 -i 38 -a 0 -x {3.0 0.2 -1 ------- null}
+ -t 1.22 -s 4 -d 5 -p cbr -e 1000 -c 0 -i 39 -a 0 -x {4.0 0.3 9 ------- null}
- -t 1.22 -s 4 -d 5 -p cbr -e 1000 -c 0 -i 39 -a 0 -x {4.0 0.3 9 ------- null}
h -t 1.22 -s 4 -d 5 -p cbr -e 1000 -c 0 -i 39 -a 0 -x {4.0 0.3 -1 ------- null}
r -t 1.228892 -s 5 -d 0 -p cbr -e 1000 -c 0 -i 37 -a 0 -x {2.0 0.1 9 ------- null}
r -t 1.237236 -s 5 -d 0 -p cbr -e 1000 -c 0 -i 36 -a 0 -x {1.0 0.0 9 ------- null}
r -t 1.246092 -s 5 -d 0 -p cbr -e 1000 -c 0 -i 39 -a 0 -x {4.0 0.3 9 ------- null}
r -t 1.254304 -s 5 -d 0 -p cbr -e 1000 -c 0 -i 38 -a 0 -x {3.0 0.2 9 ------- null}
h -t 1.3 -s 1 -d 5 -p cbr -e 1000 -c 0 -i 40 -a 0 -x {1.0 0.0 10 ------- null}
h -t 1.3 -s 2 -d 5 -p cbr -e 1000 -c 0 -i 41 -a 0 -x {2.0 0.1 10 ------- null}
h -t 1.3 -s 3 -d 5 -p cbr -e 1000 -c 0 -i 42 -a 0 -x {3.0 0.2 10 ------- null}
h -t 1.3 -s 4 -d 5 -p cbr -e 1000 -c 0 -i 43 -a 0 -x {4.0 0.3 10 ------- null}
+ -t 1.3 -s 1 -d 5 -p cbr -e 1000 -c 0 -i 40 -a 0 -x {1.0 0.0 10 ------- null}
- -t 1.3 -s 1 -d 5 -p cbr -e 1000 -c 0 -i 40 -a 0 -x {1.0 0.0 10 ------- null}
h -t 1.3 -s 1 -d 5 -p cbr -e 1000 -c 0 -i 40 -a 0 -x {1.0 0.0 -1 ------- null}
+ -t 1.3 -s 2 -d 5 -p cbr -e 1000 -c 0 -i 41 -a 0 -x {2.0 0.1 10 ------- null}
- -t 1.3 -s 2 -d 5 -p cbr -e 1000 -c 0 -i 41 -a 0 -x {2.0 0.1 10 ------- null}
h -t 1.3 -s 2 -d 5 -p cbr -e 1000 -c 0 -i 41 -a 0 -x {2.0 0.1 -1 ------- null}
+ -t 1.3 -s 3 -d 5 -p cbr -e 1000 -c 0 -i 42 -a 0 -x {3.0 0.2 10 ------- null}
- -t 1.3 -s 3 -d 5 -p cbr -e 1000 -c 0 -i 42 -a 0 -x {3.0 0.2 10 ------- null}
h -t 1.3 -s 3 -d 5 -p cbr -e 1000 -c 0 -i 42 -a 0 -x {3.0 0.2 -1 ------- null}
+ -t 1.3 -s 4 -d 5 -p cbr -e 1000 -c 0 -i 43 -a 0 -x {4.0 0.3 10 ------- null}
- -t 1.3 -s 4 -d 5 -p cbr -e 1000 -c 0 -i 43 -a 0 -x {4.0 0.3 10 ------- null}
h -t 1.3 -s 4 -d 5 -p cbr -e 1000 -c 0 -i 43 -a 0 -x {4.0 0.3 -1 ------- null}
r -t 1.30838 -s 5 -d 0 -p cbr -e 1000 -c 0 -i 40 -a 0 -x {1.0 0.0 10 ------- null}
r -t 1.318392 -s 5 -d 0 -p cbr -e 1000 -c 0 -i 41 -a 0 -x {2.0 0.1 10 ------- null}
r -t 1.326736 -s 5 -d 0 -p cbr -e 1000 -c 0 -i 42 -a 0 -x {3.0 0.2 10 ------- null}
r -t 1.334948 -s 5 -d 0 -p cbr -e 1000 -c 0 -i 43 -a 0 -x {4.0 0.3 10 ------- null}
h -t 1.38 -s 1 -d 5 -p cbr -e 1000 -c 0 -i 44 -a 0 -x {1.0 0.0 11 ------- null}
h -t 1.38 -s 2 -d 5 -p cbr -e 1000 -c 0 -i 45 -a 0 -x {2.0 0.1 11 ------- null}
h -t 1.38 -s 3 -d 5 -p cbr -e 1000 -c 0 -i 46 -a 0 -x {3.0 0.2 11 ------- null}
h -t 1.38 -s 4 -d 5 -p cbr -e 1000 -c 0 -i 47 -a 0 -x {4.0 0.3 11 ------- null}
+ -t 1.38 -s 1 -d 5 -p cbr -e 1000 -c 0 -i 44 -a 0 -x {1.0 0.0 11 ------- null}
- -t 1.38 -s 1 -d 5 -p cbr -e 1000 -c 0 -i 44 -a 0 -x {1.0 0.0 11 ------- null}
h -t 1.38 -s 1 -d 5 -p cbr -e 1000 -c 0 -i 44 -a 0 -x {1.0 0.0 -1 ------- null}
+ -t 1.38 -s 2 -d 5 -p cbr -e 1000 -c 0 -i 45 -a 0 -x {2.0 0.1 11 ------- null}
- -t 1.38 -s 2 -d 5 -p cbr -e 1000 -c 0 -i 45 -a 0 -x {2.0 0.1 11 ------- null}
h -t 1.38 -s 2 -d 5 -p cbr -e 1000 -c 0 -i 45 -a 0 -x {2.0 0.1 -1 ------- null}
+ -t 1.38 -s 3 -d 5 -p cbr -e 1000 -c 0 -i 46 -a 0 -x {3.0 0.2 11 ------- null}
- -t 1.38 -s 3 -d 5 -p cbr -e 1000 -c 0 -i 46 -a 0 -x {3.0 0.2 11 ------- null}
h -t 1.38 -s 3 -d 5 -p cbr -e 1000 -c 0 -i 46 -a 0 -x {3.0 0.2 -1 ------- null}
+ -t 1.38 -s 4 -d 5 -p cbr -e 1000 -c 0 -i 47 -a 0 -x {4.0 0.3 11 ------- null}
- -t 1.38 -s 4 -d 5 -p cbr -e 1000 -c 0 -i 47 -a 0 -x {4.0 0.3 11 ------- null}
h -t 1.38 -s 4 -d 5 -p cbr -e 1000 -c 0 -i 47 -a 0 -x {4.0 0.3 -1 ------- null}
r -t 1.389404 -s 5 -d 0 -p cbr -e 1000 -c 0 -i 47 -a 0 -x {4.0 0.3 11 ------- null}
r -t 1.39826 -s 5 -d 0 -p cbr -e 1000 -c 0 -i 46 -a 0 -x {3.0 0.2 11 ------- null}
r -t 1.420048 -s 5 -d 0 -p cbr -e 1000 -c 0 -i 45 -a 0 -x {2.0 0.1 11 ------- null}
r -t 1.42826 -s 5 -d 0 -p cbr -e 1000 -c 0 -i 44 -a 0 -x {1.0 0.0 11 ------- null}
h -t 1.46 -s 1 -d 5 -p cbr -e 1000 -c 0 -i 48 -a 0 -x {1.0 0.0 12 ------- null}
h -t 1.46 -s 2 -d 5 -p cbr -e 1000 -c 0 -i 49 -a 0 -x {2.0 0.1 12 ------- null}
h -t 1.46 -s 3 -d 5 -p cbr -e 1000 -c 0 -i 50 -a 0 -x {3.0 0.2 12 ------- null}
h -t 1.46 -s 4 -d 5 -p cbr -e 1000 -c 0 -i 51 -a 0 -x {4.0 0.3 12 ------- null}
+ -t 1.46 -s 1 -d 5 -p cbr -e 1000 -c 0 -i 48 -a 0 -x {1.0 0.0 12 ------- null}
- -t 1.46 -s 1 -d 5 -p cbr -e 1000 -c 0 -i 48 -a 0 -x {1.0 0.0 12 ------- null}
h -t 1.46 -s 1 -d 5 -p cbr -e 1000 -c 0 -i 48 -a 0 -x {1.0 0.0 -1 ------- null}
+ -t 1.46 -s 2 -d 5 -p cbr -e 1000 -c 0 -i 49 -a 0 -x {2.0 0.1 12 ------- null}
- -t 1.46 -s 2 -d 5 -p cbr -e 1000 -c 0 -i 49 -a 0 -x {2.0 0.1 12 ------- null}
h -t 1.46 -s 2 -d 5 -p cbr -e 1000 -c 0 -i 49 -a 0 -x {2.0 0.1 -1 ------- null}
+ -t 1.46 -s 3 -d 5 -p cbr -e 1000 -c 0 -i 50 -a 0 -x {3.0 0.2 12 ------- null}
- -t 1.46 -s 3 -d 5 -p cbr -e 1000 -c 0 -i 50 -a 0 -x {3.0 0.2 12 ------- null}
h -t 1.46 -s 3 -d 5 -p cbr -e 1000 -c 0 -i 50 -a 0 -x {3.0 0.2 -1 ------- null}
+ -t 1.46 -s 4 -d 5 -p cbr -e 1000 -c 0 -i 51 -a 0 -x {4.0 0.3 12 ------- null}
- -t 1.46 -s 4 -d 5 -p cbr -e 1000 -c 0 -i 51 -a 0 -x {4.0 0.3 12 ------- null}
h -t 1.46 -s 4 -d 5 -p cbr -e 1000 -c 0 -i 51 -a 0 -x {4.0 0.3 -1 ------- null}
r -t 1.46838 -s 5 -d 0 -p cbr -e 1000 -c 0 -i 51 -a 0 -x {4.0 0.3 12 ------- null}
r -t 1.477748 -s 5 -d 0 -p cbr -e 1000 -c 0 -i 50 -a 0 -x {3.0 0.2 12 ------- null}
r -t 1.487116 -s 5 -d 0 -p cbr -e 1000 -c 0 -i 48 -a 0 -x {1.0 0.0 12 ------- null}
r -t 1.495328 -s 5 -d 0 -p cbr -e 1000 -c 0 -i 49 -a 0 -x {2.0 0.1 12 ------- null}
h -t 1.54 -s 1 -d 5 -p cbr -e 1000 -c 0 -i 52 -a 0 -x {1.0 0.0 13 ------- null}
h -t 1.54 -s 2 -d 5 -p cbr -e 1000 -c 0 -i 53 -a 0 -x {2.0 0.1 13 ------- null}
h -t 1.54 -s 3 -d 5 -p cbr -e 1000 -c 0 -i 54 -a 0 -x {3.0 0.2 13 ------- null}
h -t 1.54 -s 4 -d 5 -p cbr -e 1000 -c 0 -i 55 -a 0 -x {4.0 0.3 13 ------- null}
+ -t 1.54 -s 1 -d 5 -p cbr -e 1000 -c 0 -i 52 -a 0 -x {1.0 0.0 13 ------- null}
- -t 1.54 -s 1 -d 5 -p cbr -e 1000 -c 0 -i 52 -a 0 -x {1.0 0.0 13 ------- null}
h -t 1.54 -s 1 -d 5 -p cbr -e 1000 -c 0 -i 52 -a 0 -x {1.0 0.0 -1 ------- null}
+ -t 1.54 -s 2 -d 5 -p cbr -e 1000 -c 0 -i 53 -a 0 -x {2.0 0.1 13 ------- null}
- -t 1.54 -s 2 -d 5 -p cbr -e 1000 -c 0 -i 53 -a 0 -x {2.0 0.1 13 ------- null}
h -t 1.54 -s 2 -d 5 -p cbr -e 1000 -c 0 -i 53 -a 0 -x {2.0 0.1 -1 ------- null}
+ -t 1.54 -s 3 -d 5 -p cbr -e 1000 -c 0 -i 54 -a 0 -x {3.0 0.2 13 ------- null}
- -t 1.54 -s 3 -d 5 -p cbr -e 1000 -c 0 -i 54 -a 0 -x {3.0 0.2 13 ------- null}
h -t 1.54 -s 3 -d 5 -p cbr -e 1000 -c 0 -i 54 -a 0 -x {3.0 0.2 -1 ------- null}
+ -t 1.54 -s 4 -d 5 -p cbr -e 1000 -c 0 -i 55 -a 0 -x {4.0 0.3 13 ------- null}
- -t 1.54 -s 4 -d 5 -p cbr -e 1000 -c 0 -i 55 -a 0 -x {4.0 0.3 13 ------- null}
h -t 1.54 -s 4 -d 5 -p cbr -e 1000 -c 0 -i 55 -a 0 -x {4.0 0.3 -1 ------- null}
r -t 1.548248 -s 5 -d 0 -p cbr -e 1000 -c 0 -i 52 -a 0 -x {1.0 0.0 13 ------- null}
r -t 1.557104 -s 5 -d 0 -p cbr -e 1000 -c 0 -i 55 -a 0 -x {4.0 0.3 13 ------- null}
r -t 1.567496 -s 5 -d 0 -p cbr -e 1000 -c 0 -i 54 -a 0 -x {3.0 0.2 13 ------- null}
r -t 1.575708 -s 5 -d 0 -p cbr -e 1000 -c 0 -i 53 -a 0 -x {2.0 0.1 13 ------- null}
h -t 1.62 -s 1 -d 5 -p cbr -e 1000 -c 0 -i 56 -a 0 -x {1.0 0.0 14 ------- null}
h -t 1.62 -s 2 -d 5 -p cbr -e 1000 -c 0 -i 57 -a 0 -x {2.0 0.1 14 ------- null}
h -t 1.62 -s 3 -d 5 -p cbr -e 1000 -c 0 -i 58 -a 0 -x {3.0 0.2 14 ------- null}
h -t 1.62 -s 4 -d 5 -p cbr -e 1000 -c 0 -i 59 -a 0 -x {4.0 0.3 14 ------- null}
+ -t 1.62 -s 1 -d 5 -p cbr -e 1000 -c 0 -i 56 -a 0 -x {1.0 0.0 14 ------- null}
- -t 1.62 -s 1 -d 5 -p cbr -e 1000 -c 0 -i 56 -a 0 -x {1.0 0.0 14 ------- null}
h -t 1.62 -s 1 -d 5 -p cbr -e 1000 -c 0 -i 56 -a 0 -x {1.0 0.0 -1 ------- null}
+ -t 1.62 -s 2 -d 5 -p cbr -e 1000 -c 0 -i 57 -a 0 -x {2.0 0.1 14 ------- null}
- -t 1.62 -s 2 -d 5 -p cbr -e 1000 -c 0 -i 57 -a 0 -x {2.0 0.1 14 ------- null}
h -t 1.62 -s 2 -d 5 -p cbr -e 1000 -c 0 -i 57 -a 0 -x {2.0 0.1 -1 ------- null}
+ -t 1.62 -s 3 -d 5 -p cbr -e 1000 -c 0 -i 58 -a 0 -x {3.0 0.2 14 ------- null}
- -t 1.62 -s 3 -d 5 -p cbr -e 1000 -c 0 -i 58 -a 0 -x {3.0 0.2 14 ------- null}
h -t 1.62 -s 3 -d 5 -p cbr -e 1000 -c 0 -i 58 -a 0 -x {3.0 0.2 -1 ------- null}
+ -t 1.62 -s 4 -d 5 -p cbr -e 1000 -c 0 -i 59 -a 0 -x {4.0 0.3 14 ------- null}
- -t 1.62 -s 4 -d 5 -p cbr -e 1000 -c 0 -i 59 -a 0 -x {4.0 0.3 14 ------- null}
h -t 1.62 -s 4 -d 5 -p cbr -e 1000 -c 0 -i 59 -a 0 -x {4.0 0.3 -1 ------- null}
r -t 1.628892 -s 5 -d 0 -p cbr -e 1000 -c 0 -i 56 -a 0 -x {1.0 0.0 14 ------- null}
r -t 1.638772 -s 5 -d 0 -p cbr -e 1000 -c 0 -i 59 -a 0 -x {4.0 0.3 14 ------- null}
r -t 1.650188 -s 5 -d 0 -p cbr -e 1000 -c 0 -i 58 -a 0 -x {3.0 0.2 14 ------- null}
r -t 1.6584 -s 5 -d 0 -p cbr -e 1000 -c 0 -i 57 -a 0 -x {2.0 0.1 14 ------- null}
h -t 1.7 -s 1 -d 5 -p cbr -e 1000 -c 0 -i 60 -a 0 -x {1.0 0.0 15 ------- null}
h -t 1.7 -s 2 -d 5 -p cbr -e 1000 -c 0 -i 61 -a 0 -x {2.0 0.1 15 ------- null}
h -t 1.7 -s 3 -d 5 -p cbr -e 1000 -c 0 -i 62 -a 0 -x {3.0 0.2 15 ------- null}
h -t 1.7 -s 4 -d 5 -p cbr -e 1000 -c 0 -i 63 -a 0 -x {4.0 0.3 15 ------- null}
+ -t 1.7 -s 1 -d 5 -p cbr -e 1000 -c 0 -i 60 -a 0 -x {1.0 0.0 15 ------- null}
- -t 1.7 -s 1 -d 5 -p cbr -e 1000 -c 0 -i 60 -a 0 -x {1.0 0.0 15 ------- null}
h -t 1.7 -s 1 -d 5 -p cbr -e 1000 -c 0 -i 60 -a 0 -x {1.0 0.0 -1 ------- null}
+ -t 1.7 -s 2 -d 5 -p cbr -e 1000 -c 0 -i 61 -a 0 -x {2.0 0.1 15 ------- null}
- -t 1.7 -s 2 -d 5 -p cbr -e 1000 -c 0 -i 61 -a 0 -x {2.0 0.1 15 ------- null}
h -t 1.7 -s 2 -d 5 -p cbr -e 1000 -c 0 -i 61 -a 0 -x {2.0 0.1 -1 ------- null}
+ -t 1.7 -s 3 -d 5 -p cbr -e 1000 -c 0 -i 62 -a 0 -x {3.0 0.2 15 ------- null}
- -t 1.7 -s 3 -d 5 -p cbr -e 1000 -c 0 -i 62 -a 0 -x {3.0 0.2 15 ------- null}
h -t 1.7 -s 3 -d 5 -p cbr -e 1000 -c 0 -i 62 -a 0 -x {3.0 0.2 -1 ------- null}
+ -t 1.7 -s 4 -d 5 -p cbr -e 1000 -c 0 -i 63 -a 0 -x {4.0 0.3 15 ------- null}
- -t 1.7 -s 4 -d 5 -p cbr -e 1000 -c 0 -i 63 -a 0 -x {4.0 0.3 15 ------- null}
h -t 1.7 -s 4 -d 5 -p cbr -e 1000 -c 0 -i 63 -a 0 -x {4.0 0.3 -1 ------- null}
r -t 1.71236 -s 5 -d 0 -p cbr -e 1000 -c 0 -i 60 -a 0 -x {1.0 0.0 15 ------- null}
r -t 1.725824 -s 5 -d 0 -p cbr -e 1000 -c 0 -i 61 -a 0 -x {2.0 0.1 15 ------- null}
r -t 1.734036 -s 5 -d 0 -p cbr -e 1000 -c 0 -i 63 -a 0 -x {4.0 0.3 15 ------- null}
r -t 1.743232 -s 5 -d 0 -p cbr -e 1000 -c 0 -i 62 -a 0 -x {3.0 0.2 15 ------- null}
h -t 1.78 -s 1 -d 5 -p cbr -e 1000 -c 0 -i 64 -a 0 -x {1.0 0.0 16 ------- null}
h -t 1.78 -s 2 -d 5 -p cbr -e 1000 -c 0 -i 65 -a 0 -x {2.0 0.1 16 ------- null}
h -t 1.78 -s 3 -d 5 -p cbr -e 1000 -c 0 -i 66 -a 0 -x {3.0 0.2 16 ------- null}
h -t 1.78 -s 4 -d 5 -p cbr -e 1000 -c 0 -i 67 -a 0 -x {4.0 0.3 16 ------- null}
+ -t 1.78 -s 1 -d 5 -p cbr -e 1000 -c 0 -i 64 -a 0 -x {1.0 0.0 16 ------- null}
- -t 1.78 -s 1 -d 5 -p cbr -e 1000 -c 0 -i 64 -a 0 -x {1.0 0.0 16 ------- null}
h -t 1.78 -s 1 -d 5 -p cbr -e 1000 -c 0 -i 64 -a 0 -x {1.0 0.0 -1 ------- null}
+ -t 1.78 -s 2 -d 5 -p cbr -e 1000 -c 0 -i 65 -a 0 -x {2.0 0.1 16 ------- null}
- -t 1.78 -s 2 -d 5 -p cbr -e 1000 -c 0 -i 65 -a 0 -x {2.0 0.1 16 ------- null}
h -t 1.78 -s 2 -d 5 -p cbr -e 1000 -c 0 -i 65 -a 0 -x {2.0 0.1 -1 ------- null}
+ -t 1.78 -s 3 -d 5 -p cbr -e 1000 -c 0 -i 66 -a 0 -x {3.0 0.2 16 ------- null}
- -t 1.78 -s 3 -d 5 -p cbr -e 1000 -c 0 -i 66 -a 0 -x {3.0 0.2 16 ------- null}
h -t 1.78 -s 3 -d 5 -p cbr -e 1000 -c 0 -i 66 -a 0 -x {3.0 0.2 -1 ------- null}
+ -t 1.78 -s 4 -d 5 -p cbr -e 1000 -c 0 -i 67 -a 0 -x {4.0 0.3 16 ------- null}
- -t 1.78 -s 4 -d 5 -p cbr -e 1000 -c 0 -i 67 -a 0 -x {4.0 0.3 16 ------- null}
h -t 1.78 -s 4 -d 5 -p cbr -e 1000 -c 0 -i 67 -a 0 -x {4.0 0.3 -1 ------- null}
r -t 1.78876 -s 5 -d 0 -p cbr -e 1000 -c 0 -i 65 -a 0 -x {2.0 0.1 16 ------- null}
r -t 1.799152 -s 5 -d 0 -p cbr -e 1000 -c 0 -i 66 -a 0 -x {3.0 0.2 16 ------- null}
r -t 1.80852 -s 5 -d 0 -p cbr -e 1000 -c 0 -i 64 -a 0 -x {1.0 0.0 16 ------- null}
r -t 1.816732 -s 5 -d 0 -p cbr -e 1000 -c 0 -i 67 -a 0 -x {4.0 0.3 16 ------- null}
h -t 1.86 -s 1 -d 5 -p cbr -e 1000 -c 0 -i 68 -a 0 -x {1.0 0.0 17 ------- null}
h -t 1.86 -s 2 -d 5 -p cbr -e 1000 -c 0 -i 69 -a 0 -x {2.0 0.1 17 ------- null}
h -t 1.86 -s 3 -d 5 -p cbr -e 1000 -c 0 -i 70 -a 0 -x {3.0 0.2 17 ------- null}
h -t 1.86 -s 4 -d 5 -p cbr -e 1000 -c 0 -i 71 -a 0 -x {4.0 0.3 17 ------- null}
+ -t 1.86 -s 1 -d 5 -p cbr -e 1000 -c 0 -i 68 -a 0 -x {1.0 0.0 17 ------- null}
- -t 1.86 -s 1 -d 5 -p cbr -e 1000 -c 0 -i 68 -a 0 -x {1.0 0.0 17 ------- null}
h -t 1.86 -s 1 -d 5 -p cbr -e 1000 -c 0 -i 68 -a 0 -x {1.0 0.0 -1 ------- null}
+ -t 1.86 -s 2 -d 5 -p cbr -e 1000 -c 0 -i 69 -a 0 -x {2.0 0.1 17 ------- null}
- -t 1.86 -s 2 -d 5 -p cbr -e 1000 -c 0 -i 69 -a 0 -x {2.0 0.1 17 ------- null}
h -t 1.86 -s 2 -d 5 -p cbr -e 1000 -c 0 -i 69 -a 0 -x {2.0 0.1 -1 ------- null}
+ -t 1.86 -s 3 -d 5 -p cbr -e 1000 -c 0 -i 70 -a 0 -x {3.0 0.2 17 ------- null}
- -t 1.86 -s 3 -d 5 -p cbr -e 1000 -c 0 -i 70 -a 0 -x {3.0 0.2 17 ------- null}
h -t 1.86 -s 3 -d 5 -p cbr -e 1000 -c 0 -i 70 -a 0 -x {3.0 0.2 -1 ------- null}
+ -t 1.86 -s 4 -d 5 -p cbr -e 1000 -c 0 -i 71 -a 0 -x {4.0 0.3 17 ------- null}
- -t 1.86 -s 4 -d 5 -p cbr -e 1000 -c 0 -i 71 -a 0 -x {4.0 0.3 17 ------- null}
h -t 1.86 -s 4 -d 5 -p cbr -e 1000 -c 0 -i 71 -a 0 -x {4.0 0.3 -1 ------- null}
r -t 1.868248 -s 5 -d 0 -p cbr -e 1000 -c 0 -i 70 -a 0 -x {3.0 0.2 17 ------- null}
r -t 1.877104 -s 5 -d 0 -p cbr -e 1000 -c 0 -i 69 -a 0 -x {2.0 0.1 17 ------- null}
r -t 1.885448 -s 5 -d 0 -p cbr -e 1000 -c 0 -i 68 -a 0 -x {1.0 0.0 17 ------- null}
r -t 1.89366 -s 5 -d 0 -p cbr -e 1000 -c 0 -i 71 -a 0 -x {4.0 0.3 17 ------- null}
h -t 1.94 -s 1 -d 5 -p cbr -e 1000 -c 0 -i 72 -a 0 -x {1.0 0.0 18 ------- null}
h -t 1.94 -s 2 -d 5 -p cbr -e 1000 -c 0 -i 73 -a 0 -x {2.0 0.1 18 ------- null}
h -t 1.94 -s 3 -d 5 -p cbr -e 1000 -c 0 -i 74 -a 0 -x {3.0 0.2 18 ------- null}
h -t 1.94 -s 4 -d 5 -p cbr -e 1000 -c 0 -i 75 -a 0 -x {4.0 0.3 18 ------- null}
+ -t 1.94 -s 1 -d 5 -p cbr -e 1000 -c 0 -i 72 -a 0 -x {1.0 0.0 18 ------- null}
- -t 1.94 -s 1 -d 5 -p cbr -e 1000 -c 0 -i 72 -a 0 -x {1.0 0.0 18 ------- null}
h -t 1.94 -s 1 -d 5 -p cbr -e 1000 -c 0 -i 72 -a 0 -x {1.0 0.0 -1 ------- null}