+ 0.1 1 2 cbr 1000 ------- 2 1.0 3.1 0 0
- 0.1 1 2 cbr 1000 ------- 2 1.0 3.1 0 0
r 0.114 1 2 cbr 1000 ------- 2 1.0 3.1 0 0
+ 0.114 2 3 cbr 1000 ------- 2 1.0 3.1 0 0
- 0.114 2 3 cbr 1000 ------- 2 1.0 3.1 0 0
+ 0.12 1 2 cbr 1000 ------- 2 1.0 3.1 1 1
- 0.12 1 2 cbr 1000 ------- 2 1.0 3.1 1 1
r 0.134 1 2 cbr 1000 ------- 2 1.0 3.1 1 1
+ 0.134 2 3 cbr 1000 ------- 2 1.0 3.1 1 1
- 0.134 2 3 cbr 1000 ------- 2 1.0 3.1 1 1
r 0.138706 2 3 cbr 1000 ------- 2 1.0 3.1 0 0
+ 0.14 1 2 cbr 1000 ------- 2 1.0 3.1 2 2
- 0.14 1 2 cbr 1000 ------- 2 1.0 3.1 2 2
r 0.154 1 2 cbr 1000 ------- 2 1.0 3.1 2 2
+ 0.154 2 3 cbr 1000 ------- 2 1.0 3.1 2 2
- 0.154 2 3 cbr 1000 ------- 2 1.0 3.1 2 2
r 0.158706 2 3 cbr 1000 ------- 2 1.0 3.1 1 1
+ 0.16 1 2 cbr 1000 ------- 2 1.0 3.1 3 3
- 0.16 1 2 cbr 1000 ------- 2 1.0 3.1 3 3
r 0.174 1 2 cbr 1000 ------- 2 1.0 3.1 3 3
+ 0.174 2 3 cbr 1000 ------- 2 1.0 3.1 3 3
- 0.174 2 3 cbr 1000 ------- 2 1.0 3.1 3 3
r 0.178706 2 3 cbr 1000 ------- 2 1.0 3.1 2 2
+ 0.18 1 2 cbr 1000 ------- 2 1.0 3.1 4 4
- 0.18 1 2 cbr 1000 ------- 2 1.0 3.1 4 4
r 0.194 1 2 cbr 1000 ------- 2 1.0 3.1 4 4
+ 0.194 2 3 cbr 1000 ------- 2 1.0 3.1 4 4
- 0.194 2 3 cbr 1000 ------- 2 1.0 3.1 4 4
r 0.198706 2 3 cbr 1000 ------- 2 1.0 3.1 3 3
+ 0.2 1 2 cbr 1000 ------- 2 1.0 3.1 5 5
- 0.2 1 2 cbr 1000 ------- 2 1.0 3.1 5 5
r 0.214 1 2 cbr 1000 ------- 2 1.0 3.1 5 5
+ 0.214 2 3 cbr 1000 ------- 2 1.0 3.1 5 5
- 0.214 2 3 cbr 1000 ------- 2 1.0 3.1 5 5
r 0.218706 2 3 cbr 1000 ------- 2 1.0 3.1 4 4
+ 0.22 1 2 cbr 1000 ------- 2 1.0 3.1 6 6
- 0.22 1 2 cbr 1000 ------- 2 1.0 3.1 6 6
r 0.234 1 2 cbr 1000 ------- 2 1.0 3.1 6 6
+ 0.234 2 3 cbr 1000 ------- 2 1.0 3.1 6 6
- 0.234 2 3 cbr 1000 ------- 2 1.0 3.1 6 6
r 0.238706 2 3 cbr 1000 ------- 2 1.0 3.1 5 5
+ 0.24 1 2 cbr 1000 ------- 2 1.0 3.1 7 7
- 0.24 1 2 cbr 1000 ------- 2 1.0 3.1 7 7
r 0.254 1 2 cbr 1000 ------- 2 1.0 3.1 7 7
+ 0.254 2 3 cbr 1000 ------- 2 1.0 3.1 7 7
- 0.254 2 3 cbr 1000 ------- 2 1.0 3.1 7 7
r 0.258706 2 3 cbr 1000 ------- 2 1.0 3.1 6 6
+ 0.26 1 2 cbr 1000 ------- 2 1.0 3.1 8 8
- 0.26 1 2 cbr 1000 ------- 2 1.0 3.1 8 8
r 0.274 1 2 cbr 1000 ------- 2 1.0 3.1 8 8
+ 0.274 2 3 cbr 1000 ------- 2 1.0 3.1 8 8
- 0.274 2 3 cbr 1000 ------- 2 1.0 3.1 8 8
r 0.278706 2 3 cbr 1000 ------- 2 1.0 3.1 7 7
+ 0.28 1 2 cbr 1000 ------- 2 1.0 3.1 9 9
- 0.28 1 2 cbr 1000 ------- 2 1.0 3.1 9 9
r 0.294 1 2 cbr 1000 ------- 2 1.0 3.1 9 9
+ 0.294 2 3 cbr 1000 ------- 2 1.0 3.1 9 9
- 0.294 2 3 cbr 1000 ------- 2 1.0 3.1 9 9
r 0.298706 2 3 cbr 1000 ------- 2 1.0 3.1 8 8
+ 0.3 1 2 cbr 1000 ------- 2 1.0 3.1 10 10
- 0.3 1 2 cbr 1000 ------- 2 1.0 3.1 10 10
r 0.314 1 2 cbr 1000 ------- 2 1.0 3.1 10 10
+ 0.314 2 3 cbr 1000 ------- 2 1.0 3.1 10 10
- 0.314 2 3 cbr 1000 ------- 2 1.0 3.1 10 10
r 0.318706 2 3 cbr 1000 ------- 2 1.0 3.1 9 9
+ 0.32 1 2 cbr 1000 ------- 2 1.0 3.1 11 11
- 0.32 1 2 cbr 1000 ------- 2 1.0 3.1 11 11
r 0.334 1 2 cbr 1000 ------- 2 1.0 3.1 11 11
+ 0.334 2 3 cbr 1000 ------- 2 1.0 3.1 11 11
- 0.334 2 3 cbr 1000 ------- 2 1.0 3.1 11 11
r 0.338706 2 3 cbr 1000 ------- 2 1.0 3.1 10 10
+ 0.34 1 2 cbr 1000 ------- 2 1.0 3.1 12 12
- 0.34 1 2 cbr 1000 ------- 2 1.0 3.1 12 12
r 0.354 1 2 cbr 1000 ------- 2 1.0 3.1 12 12
+ 0.354 2 3 cbr 1000 ------- 2 1.0 3.1 12 12
- 0.354 2 3 cbr 1000 ------- 2 1.0 3.1 12 12
r 0.358706 2 3 cbr 1000 ------- 2 1.0 3.1 11 11
+ 0.36 1 2 cbr 1000 ------- 2 1.0 3.1 13 13
- 0.36 1 2 cbr 1000 ------- 2 1.0 3.1 13 13
r 0.374 1 2 cbr 1000 ------- 2 1.0 3.1 13 13
+ 0.374 2 3 cbr 1000 ------- 2 1.0 3.1 13 13
- 0.374 2 3 cbr 1000 ------- 2 1.0 3.1 13 13
r 0.378706 2 3 cbr 1000 ------- 2 1.0 3.1 12 12
+ 0.38 1 2 cbr 1000 ------- 2 1.0 3.1 14 14
- 0.38 1 2 cbr 1000 ------- 2 1.0 3.1 14 14
r 0.394 1 2 cbr 1000 ------- 2 1.0 3.1 14 14
+ 0.394 2 3 cbr 1000 ------- 2 1.0 3.1 14 14
- 0.394 2 3 cbr 1000 ------- 2 1.0 3.1 14 14
r 0.398706 2 3 cbr 1000 ------- 2 1.0 3.1 13 13
+ 0.4 1 2 cbr 1000 ------- 2 1.0 3.1 15 15
- 0.4 1 2 cbr 1000 ------- 2 1.0 3.1 15 15
r 0.414 1 2 cbr 1000 ------- 2 1.0 3.1 15 15
+ 0.414 2 3 cbr 1000 ------- 2 1.0 3.1 15 15
- 0.414 2 3 cbr 1000 ------- 2 1.0 3.1 15 15
r 0.418706 2 3 cbr 1000 ------- 2 1.0 3.1 14 14
+ 0.42 1 2 cbr 1000 ------- 2 1.0 3.1 16 16
- 0.42 1 2 cbr 1000 ------- 2 1.0 3.1 16 16
r 0.434 1 2 cbr 1000 ------- 2 1.0 3.1 16 16
+ 0.434 2 3 cbr 1000 ------- 2 1.0 3.1 16 16
- 0.434 2 3 cbr 1000 ------- 2 1.0 3.1 16 16
r 0.438706 2 3 cbr 1000 ------- 2 1.0 3.1 15 15
+ 0.44 1 2 cbr 1000 ------- 2 1.0 3.1 17 17
- 0.44 1 2 cbr 1000 ------- 2 1.0 3.1 17 17
r 0.454 1 2 cbr 1000 ------- 2 1.0 3.1 17 17
+ 0.454 2 3 cbr 1000 ------- 2 1.0 3.1 17 17
- 0.454 2 3 cbr 1000 ------- 2 1.0 3.1 17 17
r 0.458706 2 3 cbr 1000 ------- 2 1.0 3.1 16 16
+ 0.46 1 2 cbr 1000 ------- 2 1.0 3.1 18 18
- 0.46 1 2 cbr 1000 ------- 2 1.0 3.1 18 18
r 0.474 1 2 cbr 1000 ------- 2 1.0 3.1 18 18
+ 0.474 2 3 cbr 1000 ------- 2 1.0 3.1 18 18
- 0.474 2 3 cbr 1000 ------- 2 1.0 3.1 18 18
r 0.478706 2 3 cbr 1000 ------- 2 1.0 3.1 17 17
+ 0.48 1 2 cbr 1000 ------- 2 1.0 3.1 19 19
- 0.48 1 2 cbr 1000 ------- 2 1.0 3.1 19 19
r 0.494 1 2 cbr 1000 ------- 2 1.0 3.1 19 19
+ 0.494 2 3 cbr 1000 ------- 2 1.0 3.1 19 19
- 0.494 2 3 cbr 1000 ------- 2 1.0 3.1 19 19
r 0.498706 2 3 cbr 1000 ------- 2 1.0 3.1 18 18
+ 0.5 1 2 cbr 1000 ------- 2 1.0 3.1 20 20
- 0.5 1 2 cbr 1000 ------- 2 1.0 3.1 20 20
r 0.514 1 2 cbr 1000 ------- 2 1.0 3.1 20 20
+ 0.514 2 3 cbr 1000 ------- 2 1.0 3.1 20 20
- 0.514 2 3 cbr 1000 ------- 2 1.0 3.1 20 20
r 0.518706 2 3 cbr 1000 ------- 2 1.0 3.1 19 19
+ 0.52 1 2 cbr 1000 ------- 2 1.0 3.1 21 21
- 0.52 1 2 cbr 1000 ------- 2 1.0 3.1 21 21
r 0.534 1 2 cbr 1000 ------- 2 1.0 3.1 21 21
+ 0.534 2 3 cbr 1000 ------- 2 1.0 3.1 21 21
- 0.534 2 3 cbr 1000 ------- 2 1.0 3.1 21 21
r 0.538706 2 3 cbr 1000 ------- 2 1.0 3.1 20 20
+ 0.54 1 2 cbr 1000 ------- 2 1.0 3.1 22 22
- 0.54 1 2 cbr 1000 ------- 2 1.0 3.1 22 22
r 0.554 1 2 cbr 1000 ------- 2 1.0 3.1 22 22
+ 0.554 2 3 cbr 1000 ------- 2 1.0 3.1 22 22
- 0.554 2 3 cbr 1000 ------- 2 1.0 3.1 22 22
r 0.558706 2 3 cbr 1000 ------- 2 1.0 3.1 21 21
+ 0.56 1 2 cbr 1000 ------- 2 1.0 3.1 23 23
- 0.56 1 2 cbr 1000 ------- 2 1.0 3.1 23 23
r 0.574 1 2 cbr 1000 ------- 2 1.0 3.1 23 23
+ 0.574 2 3 cbr 1000 ------- 2 1.0 3.1 23 23
- 0.574 2 3 cbr 1000 ------- 2 1.0 3.1 23 23
r 0.578706 2 3 cbr 1000 ------- 2 1.0 3.1 22 22
+ 0.58 1 2 cbr 1000 ------- 2 1.0 3.1 24 24
- 0.58 1 2 cbr 1000 ------- 2 1.0 3.1 24 24
r 0.594 1 2 cbr 1000 ------- 2 1.0 3.1 24 24
+ 0.594 2 3 cbr 1000 ------- 2 1.0 3.1 24 24
- 0.594 2 3 cbr 1000 ------- 2 1.0 3.1 24 24
r 0.598706 2 3 cbr 1000 ------- 2 1.0 3.1 23 23
+ 0.6 1 2 cbr 1000 ------- 2 1.0 3.1 25 25
- 0.6 1 2 cbr 1000 ------- 2 1.0 3.1 25 25
r 0.614 1 2 cbr 1000 ------- 2 1.0 3.1 25 25
+ 0.614 2 3 cbr 1000 ------- 2 1.0 3.1 25 25
- 0.614 2 3 cbr 1000 ------- 2 1.0 3.1 25 25
r 0.618706 2 3 cbr 1000 ------- 2 1.0 3.1 24 24
+ 0.62 1 2 cbr 1000 ------- 2 1.0 3.1 26 26
- 0.62 1 2 cbr 1000 ------- 2 1.0 3.1 26 26
r 0.634 1 2 cbr 1000 ------- 2 1.0 3.1 26 26
+ 0.634 2 3 cbr 1000 ------- 2 1.0 3.1 26 26
- 0.634 2 3 cbr 1000 ------- 2 1.0 3.1 26 26
r 0.638706 2 3 cbr 1000 ------- 2 1.0 3.1 25 25
+ 0.64 1 2 cbr 1000 ------- 2 1.0 3.1 27 27
- 0.64 1 2 cbr 1000 ------- 2 1.0 3.1 27 27
r 0.654 1 2 cbr 1000 ------- 2 1.0 3.1 27 27
+ 0.654 2 3 cbr 1000 ------- 2 1.0 3.1 27 27
- 0.654 2 3 cbr 1000 ------- 2 1.0 3.1 27 27
r 0.658706 2 3 cbr 1000 ------- 2 1.0 3.1 26 26
+ 0.66 1 2 cbr 1000 ------- 2 1.0 3.1 28 28
- 0.66 1 2 cbr 1000 ------- 2 1.0 3.1 28 28
r 0.674 1 2 cbr 1000 ------- 2 1.0 3.1 28 28
+ 0.674 2 3 cbr 1000 ------- 2 1.0 3.1 28 28
- 0.674 2 3 cbr 1000 ------- 2 1.0 3.1 28 28
r 0.678706 2 3 cbr 1000 ------- 2 1.0 3.1 27 27
+ 0.68 1 2 cbr 1000 ------- 2 1.0 3.1 29 29
- 0.68 1 2 cbr 1000 ------- 2 1.0 3.1 29 29
r 0.694 1 2 cbr 1000 ------- 2 1.0 3.1 29 29
+ 0.694 2 3 cbr 1000 ------- 2 1.0 3.1 29 29
- 0.694 2 3 cbr 1000 ------- 2 1.0 3.1 29 29
r 0.698706 2 3 cbr 1000 ------- 2 1.0 3.1 28 28
+ 0.7 1 2 cbr 1000 ------- 2 1.0 3.1 30 30
- 0.7 1 2 cbr 1000 ------- 2 1.0 3.1 30 30
r 0.714 1 2 cbr 1000 ------- 2 1.0 3.1 30 30
+ 0.714 2 3 cbr 1000 ------- 2 1.0 3.1 30 30
- 0.714 2 3 cbr 1000 ------- 2 1.0 3.1 30 30
r 0.718706 2 3 cbr 1000 ------- 2 1.0 3.1 29 29
+ 0.72 1 2 cbr 1000 ------- 2 1.0 3.1 31 31
- 0.72 1 2 cbr 1000 ------- 2 1.0 3.1 31 31
r 0.734 1 2 cbr 1000 ------- 2 1.0 3.1 31 31
+ 0.734 2 3 cbr 1000 ------- 2 1.0 3.1 31 31
- 0.734 2 3 cbr 1000 ------- 2 1.0 3.1 31 31
r 0.738706 2 3 cbr 1000 ------- 2 1.0 3.1 30 30
+ 0.74 1 2 cbr 1000 ------- 2 1.0 3.1 32 32
- 0.74 1 2 cbr 1000 ------- 2 1.0 3.1 32 32
r 0.754 1 2 cbr 1000 ------- 2 1.0 3.1 32 32
+ 0.754 2 3 cbr 1000 ------- 2 1.0 3.1 32 32
- 0.754 2 3 cbr 1000 ------- 2 1.0 3.1 32 32
r 0.758706 2 3 cbr 1000 ------- 2 1.0 3.1 31 31
+ 0.76 1 2 cbr 1000 ------- 2 1.0 3.1 33 33
- 0.76 1 2 cbr 1000 ------- 2 1.0 3.1 33 33
r 0.774 1 2 cbr 1000 ------- 2 1.0 3.1 33 33
+ 0.774 2 3 cbr 1000 ------- 2 1.0 3.1 33 33
- 0.774 2 3 cbr 1000 ------- 2 1.0 3.1 33 33
r 0.778706 2 3 cbr 1000 ------- 2 1.0 3.1 32 32
+ 0.78 1 2 cbr 1000 ------- 2 1.0 3.1 34 34
- 0.78 1 2 cbr 1000 ------- 2 1.0 3.1 34 34
r 0.794 1 2 cbr 1000 ------- 2 1.0 3.1 34 34
+ 0.794 2 3 cbr 1000 ------- 2 1.0 3.1 34 34
- 0.794 2 3 cbr 1000 ------- 2 1.0 3.1 34 34
r 0.798706 2 3 cbr 1000 ------- 2 1.0 3.1 33 33
+ 0.8 1 2 cbr 1000 ------- 2 1.0 3.1 35 35
- 0.8 1 2 cbr 1000 ------- 2 1.0 3.1 35 35
r 0.814 1 2 cbr 1000 ------- 2 1.0 3.1 35 35
+ 0.814 2 3 cbr 1000 ------- 2 1.0 3.1 35 35
- 0.814 2 3 cbr 1000 ------- 2 1.0 3.1 35 35
r 0.818706 2 3 cbr 1000 ------- 2 1.0 3.1 34 34
+ 0.82 1 2 cbr 1000 ------- 2 1.0 3.1 36 36
- 0.82 1 2 cbr 1000 ------- 2 1.0 3.1 36 36
r 0.834 1 2 cbr 1000 ------- 2 1.0 3.1 36 36
+ 0.834 2 3 cbr 1000 ------- 2 1.0 3.1 36 36
- 0.834 2 3 cbr 1000 ------- 2 1.0 3.1 36 36
r 0.838706 2 3 cbr 1000 ------- 2 1.0 3.1 35 35
+ 0.84 1 2 cbr 1000 ------- 2 1.0 3.1 37 37
- 0.84 1 2 cbr 1000 ------- 2 1.0 3.1 37 37
r 0.854 1 2 cbr 1000 ------- 2 1.0 3.1 37 37
+ 0.854 2 3 cbr 1000 ------- 2 1.0 3.1 37 37
- 0.854 2 3 cbr 1000 ------- 2 1.0 3.1 37 37
r 0.858706 2 3 cbr 1000 ------- 2 1.0 3.1 36 36
+ 0.86 1 2 cbr 1000 ------- 2 1.0 3.1 38 38
- 0.86 1 2 cbr 1000 ------- 2 1.0 3.1 38 38
r 0.874 1 2 cbr 1000 ------- 2 1.0 3.1 38 38
+ 0.874 2 3 cbr 1000 ------- 2 1.0 3.1 38 38
- 0.874 2 3 cbr 1000 ------- 2 1.0 3.1 38 38
r 0.878706 2 3 cbr 1000 ------- 2 1.0 3.1 37 37
+ 0.88 1 2 cbr 1000 ------- 2 1.0 3.1 39 39
- 0.88 1 2 cbr 1000 ------- 2 1.0 3.1 39 39
r 0.894 1 2 cbr 1000 ------- 2 1.0 3.1 39 39
+ 0.894 2 3 cbr 1000 ------- 2 1.0 3.1 39 39
- 0.894 2 3 cbr 1000 ------- 2 1.0 3.1 39 39
r 0.898706 2 3 cbr 1000 ------- 2 1.0 3.1 38 38
+ 0.9 1 2 cbr 1000 ------- 2 1.0 3.1 40 40
- 0.9 1 2 cbr 1000 ------- 2 1.0 3.1 40 40
r 0.914 1 2 cbr 1000 ------- 2 1.0 3.1 40 40
+ 0.914 2 3 cbr 1000 ------- 2 1.0 3.1 40 40
- 0.914 2 3 cbr 1000 ------- 2 1.0 3.1 40 40
r 0.918706 2 3 cbr 1000 ------- 2 1.0 3.1 39 39
+ 0.92 1 2 cbr 1000 ------- 2 1.0 3.1 41 41
- 0.92 1 2 cbr 1000 ------- 2 1.0 3.1 41 41
r 0.934 1 2 cbr 1000 ------- 2 1.0 3.1 41 41
+ 0.934 2 3 cbr 1000 ------- 2 1.0 3.1 41 41
- 0.934 2 3 cbr 1000 ------- 2 1.0 3.1 41 41
r 0.938706 2 3 cbr 1000 ------- 2 1.0 3.1 40 40
+ 0.94 1 2 cbr 1000 ------- 2 1.0 3.1 42 42
- 0.94 1 2 cbr 1000 ------- 2 1.0 3.1 42 42
r 0.954 1 2 cbr 1000 ------- 2 1.0 3.1 42 42
+ 0.954 2 3 cbr 1000 ------- 2 1.0 3.1 42 42
- 0.954 2 3 cbr 1000 ------- 2 1.0 3.1 42 42
r 0.958706 2 3 cbr 1000 ------- 2 1.0 3.1 41 41
+ 0.96 1 2 cbr 1000 ------- 2 1.0 3.1 43 43
- 0.96 1 2 cbr 1000 ------- 2 1.0 3.1 43 43
r 0.974 1 2 cbr 1000 ------- 2 1.0 3.1 43 43
+ 0.974 2 3 cbr 1000 ------- 2 1.0 3.1 43 43
- 0.974 2 3 cbr 1000 ------- 2 1.0 3.1 43 43
r 0.978706 2 3 cbr 1000 ------- 2 1.0 3.1 42 42
+ 0.98 1 2 cbr 1000 ------- 2 1.0 3.1 44 44
- 0.98 1 2 cbr 1000 ------- 2 1.0 3.1 44 44
r 0.994 1 2 cbr 1000 ------- 2 1.0 3.1 44 44
+ 0.994 2 3 cbr 1000 ------- 2 1.0 3.1 44 44
- 0.994 2 3 cbr 1000 ------- 2 1.0 3.1 44 44
r 0.998706 2 3 cbr 1000 ------- 2 1.0 3.1 43 43
+ 1 0 2 tcp 40 ------- 1 0.0 3.0 0 45
- 1 0 2 tcp 40 ------- 1 0.0 3.0 0 45
+ 1 1 2 cbr 1000 ------- 2 1.0 3.1 45 46
- 1 1 2 cbr 1000 ------- 2 1.0 3.1 45 46
r 1.01016 0 2 tcp 40 ------- 1 0.0 3.0 0 45
+ 1.01016 2 3 tcp 40 ------- 1 0.0 3.0 0 45
- 1.01016 2 3 tcp 40 ------- 1 0.0 3.0 0 45
r 1.014 1 2 cbr 1000 ------- 2 1.0 3.1 45 46
+ 1.014 2 3 cbr 1000 ------- 2 1.0 3.1 45 46
- 1.014 2 3 cbr 1000 ------- 2 1.0 3.1 45 46
r 1.018706 2 3 cbr 1000 ------- 2 1.0 3.1 44 44
+ 1.02 1 2 cbr 1000 ------- 2 1.0 3.1 46 47
- 1.02 1 2 cbr 1000 ------- 2 1.0 3.1 46 47
r 1.030348 2 3 tcp 40 ------- 1 0.0 3.0 0 45
+ 1.030348 3 2 ack 40 ------- 1 3.0 0.0 0 48
- 1.030348 3 2 ack 40 ------- 1 3.0 0.0 0 48
r 1.034 1 2 cbr 1000 ------- 2 1.0 3.1 46 47
+ 1.034 2 3 cbr 1000 ------- 2 1.0 3.1 46 47
- 1.034 2 3 cbr 1000 ------- 2 1.0 3.1 46 47
r 1.038706 2 3 cbr 1000 ------- 2 1.0 3.1 45 46
+ 1.04 1 2 cbr 1000 ------- 2 1.0 3.1 47 49
- 1.04 1 2 cbr 1000 ------- 2 1.0 3.1 47 49
r 1.050536 3 2 ack 40 ------- 1 3.0 0.0 0 48
+ 1.050536 2 0 ack 40 ------- 1 3.0 0.0 0 48
- 1.050536 2 0 ack 40 ------- 1 3.0 0.0 0 48
r 1.054 1 2 cbr 1000 ------- 2 1.0 3.1 47 49
+ 1.054 2 3 cbr 1000 ------- 2 1.0 3.1 47 49
- 1.054 2 3 cbr 1000 ------- 2 1.0 3.1 47 49
r 1.058706 2 3 cbr 1000 ------- 2 1.0 3.1 46 47
+ 1.06 1 2 cbr 1000 ------- 2 1.0 3.1 48 50
- 1.06 1 2 cbr 1000 ------- 2 1.0 3.1 48 50
r 1.060696 2 0 ack 40 ------- 1 3.0 0.0 0 48
+ 1.060696 0 2 tcp 1040 ------- 1 0.0 3.0 1 51
- 1.060696 0 2 tcp 1040 ------- 1 0.0 3.0 1 51
+ 1.060696 0 2 tcp 1040 ------- 1 0.0 3.0 2 52
- 1.064856 0 2 tcp 1040 ------- 1 0.0 3.0 2 52
r 1.074 1 2 cbr 1000 ------- 2 1.0 3.1 48 50
+ 1.074 2 3 cbr 1000 ------- 2 1.0 3.1 48 50
- 1.074 2 3 cbr 1000 ------- 2 1.0 3.1 48 50
r 1.074856 0 2 tcp 1040 ------- 1 0.0 3.0 1 51
+ 1.074856 2 3 tcp 1040 ------- 1 0.0 3.0 1 51
r 1.078706 2 3 cbr 1000 ------- 2 1.0 3.1 47 49
- 1.078706 2 3 tcp 1040 ------- 1 0.0 3.0 1 51
r 1.079016 0 2 tcp 1040 ------- 1 0.0 3.0 2 52
+ 1.079016 2 3 tcp 1040 ------- 1 0.0 3.0 2 52
+ 1.08 1 2 cbr 1000 ------- 2 1.0 3.1 49 53
- 1.08 1 2 cbr 1000 ------- 2 1.0 3.1 49 53
- 1.0836 2 3 tcp 1040 ------- 1 0.0 3.0 2 52
r 1.094 1 2 cbr 1000 ------- 2 1.0 3.1 49 53
+ 1.094 2 3 cbr 1000 ------- 2 1.0 3.1 49 53
- 1.094 2 3 cbr 1000 ------- 2 1.0 3.1 49 53
r 1.098706 2 3 cbr 1000 ------- 2 1.0 3.1 48 50
+ 1.1 1 2 cbr 1000 ------- 2 1.0 3.1 50 54
- 1.1 1 2 cbr 1000 ------- 2 1.0 3.1 50 54
r 1.1036 2 3 tcp 1040 ------- 1 0.0 3.0 1 51
+ 1.1036 3 2 ack 40 ------- 1 3.0 0.0 1 55
- 1.1036 3 2 ack 40 ------- 1 3.0 0.0 1 55
r 1.108494 2 3 tcp 1040 ------- 1 0.0 3.0 2 52
+ 1.108494 3 2 ack 40 ------- 1 3.0 0.0 2 56
- 1.108494 3 2 ack 40 ------- 1 3.0 0.0 2 56
r 1.114 1 2 cbr 1000 ------- 2 1.0 3.1 50 54
+ 1.114 2 3 cbr 1000 ------- 2 1.0 3.1 50 54
- 1.114 2 3 cbr 1000 ------- 2 1.0 3.1 50 54
r 1.118706 2 3 cbr 1000 ------- 2 1.0 3.1 49 53
+ 1.12 1 2 cbr 1000 ------- 2 1.0 3.1 51 57
- 1.12 1 2 cbr 1000 ------- 2 1.0 3.1 51 57
r 1.123788 3 2 ack 40 ------- 1 3.0 0.0 1 55
+ 1.123788 2 0 ack 40 ------- 1 3.0 0.0 1 55
- 1.123788 2 0 ack 40 ------- 1 3.0 0.0 1 55
r 1.128682 3 2 ack 40 ------- 1 3.0 0.0 2 56
+ 1.128682 2 0 ack 40 ------- 1 3.0 0.0 2 56
- 1.128682 2 0 ack 40 ------- 1 3.0 0.0 2 56
r 1.133948 2 0 ack 40 ------- 1 3.0 0.0 1 55
+ 1.133948 0 2 tcp 1040 ------- 1 0.0 3.0 3 58
- 1.133948 0 2 tcp 1040 ------- 1 0.0 3.0 3 58
+ 1.133948 0 2 tcp 1040 ------- 1 0.0 3.0 4 59
r 1.134 1 2 cbr 1000 ------- 2 1.0 3.1 51 57
+ 1.134 2 3 cbr 1000 ------- 2 1.0 3.1 51 57
- 1.134 2 3 cbr 1000 ------- 2 1.0 3.1 51 57
- 1.138108 0 2 tcp 1040 ------- 1 0.0 3.0 4 59
r 1.138706 2 3 cbr 1000 ------- 2 1.0 3.1 50 54
r 1.138842 2 0 ack 40 ------- 1 3.0 0.0 2 56
+ 1.138842 0 2 tcp 1040 ------- 1 0.0 3.0 5 60
+ 1.138842 0 2 tcp 1040 ------- 1 0.0 3.0 6 61
+ 1.14 1 2 cbr 1000 ------- 2 1.0 3.1 52 62
- 1.14 1 2 cbr 1000 ------- 2 1.0 3.1 52 62
- 1.142268 0 2 tcp 1040 ------- 1 0.0 3.0 5 60
- 1.146428 0 2 tcp 1040 ------- 1 0.0 3.0 6 61
r 1.148108 0 2 tcp 1040 ------- 1 0.0 3.0 3 58
+ 1.148108 2 3 tcp 1040 ------- 1 0.0 3.0 3 58
- 1.148108 2 3 tcp 1040 ------- 1 0.0 3.0 3 58
r 1.152268 0 2 tcp 1040 ------- 1 0.0 3.0 4 59
+ 1.152268 2 3 tcp 1040 ------- 1 0.0 3.0 4 59
- 1.153002 2 3 tcp 1040 ------- 1 0.0 3.0 4 59
r 1.154 1 2 cbr 1000 ------- 2 1.0 3.1 52 62
+ 1.154 2 3 cbr 1000 ------- 2 1.0 3.1 52 62
r 1.156428 0 2 tcp 1040 ------- 1 0.0 3.0 5 60
+ 1.156428 2 3 tcp 1040 ------- 1 0.0 3.0 5 60
- 1.157896 2 3 cbr 1000 ------- 2 1.0 3.1 52 62
r 1.158706 2 3 cbr 1000 ------- 2 1.0 3.1 51 57
+ 1.16 1 2 cbr 1000 ------- 2 1.0 3.1 53 63
- 1.16 1 2 cbr 1000 ------- 2 1.0 3.1 53 63
r 1.160588 0 2 tcp 1040 ------- 1 0.0 3.0 6 61
+ 1.160588 2 3 tcp 1040 ------- 1 0.0 3.0 6 61
- 1.162602 2 3 tcp 1040 ------- 1 0.0 3.0 5 60
- 1.167496 2 3 tcp 1040 ------- 1 0.0 3.0 6 61
r 1.173002 2 3 tcp 1040 ------- 1 0.0 3.0 3 58
+ 1.173002 3 2 ack 40 ------- 1 3.0 0.0 3 64
- 1.173002 3 2 ack 40 ------- 1 3.0 0.0 3 64
r 1.174 1 2 cbr 1000 ------- 2 1.0 3.1 53 63
+ 1.174 2 3 cbr 1000 ------- 2 1.0 3.1 53 63
- 1.174 2 3 cbr 1000 ------- 2 1.0 3.1 53 63
r 1.177896 2 3 tcp 1040 ------- 1 0.0 3.0 4 59
+ 1.177896 3 2 ack 40 ------- 1 3.0 0.0 4 65
- 1.177896 3 2 ack 40 ------- 1 3.0 0.0 4 65
+ 1.18 1 2 cbr 1000 ------- 2 1.0 3.1 54 66
- 1.18 1 2 cbr 1000 ------- 2 1.0 3.1 54 66
r 1.182602 2 3 cbr 1000 ------- 2 1.0 3.1 52 62
r 1.187496 2 3 tcp 1040 ------- 1 0.0 3.0 5 60
+ 1.187496 3 2 ack 40 ------- 1 3.0 0.0 5 67
- 1.187496 3 2 ack 40 ------- 1 3.0 0.0 5 67
r 1.192391 2 3 tcp 1040 ------- 1 0.0 3.0 6 61
+ 1.192391 3 2 ack 40 ------- 1 3.0 0.0 6 68
- 1.192391 3 2 ack 40 ------- 1 3.0 0.0 6 68
r 1.193191 3 2 ack 40 ------- 1 3.0 0.0 3 64
+ 1.193191 2 0 ack 40 ------- 1 3.0 0.0 3 64
- 1.193191 2 0 ack 40 ------- 1 3.0 0.0 3 64
r 1.194 1 2 cbr 1000 ------- 2 1.0 3.1 54 66
+ 1.194 2 3 cbr 1000 ------- 2 1.0 3.1 54 66
- 1.194 2 3 cbr 1000 ------- 2 1.0 3.1 54 66
r 1.198085 3 2 ack 40 ------- 1 3.0 0.0 4 65
+ 1.198085 2 0 ack 40 ------- 1 3.0 0.0 4 65
- 1.198085 2 0 ack 40 ------- 1 3.0 0.0 4 65
r 1.198706 2 3 cbr 1000 ------- 2 1.0 3.1 53 63
+ 1.2 1 2 cbr 1000 ------- 2 1.0 3.1 55 69
- 1.2 1 2 cbr 1000 ------- 2 1.0 3.1 55 69
r 1.203351 2 0 ack 40 ------- 1 3.0 0.0 3 64
+ 1.203351 0 2 tcp 1040 ------- 1 0.0 3.0 7 70
- 1.203351 0 2 tcp 1040 ------- 1 0.0 3.0 7 70
+ 1.203351 0 2 tcp 1040 ------- 1 0.0 3.0 8 71
- 1.207511 0 2 tcp 1040 ------- 1 0.0 3.0 8 71
r 1.207685 3 2 ack 40 ------- 1 3.0 0.0 5 67
+ 1.207685 2 0 ack 40 ------- 1 3.0 0.0 5 67
- 1.207685 2 0 ack 40 ------- 1 3.0 0.0 5 67
r 1.208245 2 0 ack 40 ------- 1 3.0 0.0 4 65
+ 1.208245 0 2 tcp 1040 ------- 1 0.0 3.0 9 72
+ 1.208245 0 2 tcp 1040 ------- 1 0.0 3.0 10 73
- 1.211671 0 2 tcp 1040 ------- 1 0.0 3.0 9 72
r 1.212579 3 2 ack 40 ------- 1 3.0 0.0 6 68
+ 1.212579 2 0 ack 40 ------- 1 3.0 0.0 6 68
- 1.212579 2 0 ack 40 ------- 1 3.0 0.0 6 68
r 1.214 1 2 cbr 1000 ------- 2 1.0 3.1 55 69
+ 1.214 2 3 cbr 1000 ------- 2 1.0 3.1 55 69
- 1.214 2 3 cbr 1000 ------- 2 1.0 3.1 55 69
- 1.215831 0 2 tcp 1040 ------- 1 0.0 3.0 10 73
r 1.217511 0 2 tcp 1040 ------- 1 0.0 3.0 7 70
+ 1.217511 2 3 tcp 1040 ------- 1 0.0 3.0 7 70
r 1.217845 2 0 ack 40 ------- 1 3.0 0.0 5 67
+ 1.217845 0 2 tcp 1040 ------- 1 0.0 3.0 11 74
+ 1.217845 0 2 tcp 1040 ------- 1 0.0 3.0 12 75
r 1.218706 2 3 cbr 1000 ------- 2 1.0 3.1 54 66
- 1.218706 2 3 tcp 1040 ------- 1 0.0 3.0 7 70
- 1.219991 0 2 tcp 1040 ------- 1 0.0 3.0 11 74
+ 1.22 1 2 cbr 1000 ------- 2 1.0 3.1 56 76
- 1.22 1 2 cbr 1000 ------- 2 1.0 3.1 56 76
r 1.221671 0 2 tcp 1040 ------- 1 0.0 3.0 8 71
+ 1.221671 2 3 tcp 1040 ------- 1 0.0 3.0 8 71
r 1.222739 2 0 ack 40 ------- 1 3.0 0.0 6 68
+ 1.222739 0 2 tcp 1040 ------- 1 0.0 3.0 13 77
+ 1.222739 0 2 tcp 1040 ------- 1 0.0 3.0 14 78
- 1.2236 2 3 tcp 1040 ------- 1 0.0 3.0 8 71
- 1.224151 0 2 tcp 1040 ------- 1 0.0 3.0 12 75
r 1.225831 0 2 tcp 1040 ------- 1 0.0 3.0 9 72
+ 1.225831 2 3 tcp 1040 ------- 1 0.0 3.0 9 72
- 1.228311 0 2 tcp 1040 ------- 1 0.0 3.0 13 77
- 1.228494 2 3 tcp 1040 ------- 1 0.0 3.0 9 72
r 1.229991 0 2 tcp 1040 ------- 1 0.0 3.0 10 73
+ 1.229991 2 3 tcp 1040 ------- 1 0.0 3.0 10 73
- 1.232471 0 2 tcp 1040 ------- 1 0.0 3.0 14 78
- 1.233388 2 3 tcp 1040 ------- 1 0.0 3.0 10 73
r 1.234 1 2 cbr 1000 ------- 2 1.0 3.1 56 76
+ 1.234 2 3 cbr 1000 ------- 2 1.0 3.1 56 76
r 1.234151 0 2 tcp 1040 ------- 1 0.0 3.0 11 74
+ 1.234151 2 3 tcp 1040 ------- 1 0.0 3.0 11 74
- 1.238282 2 3 cbr 1000 ------- 2 1.0 3.1 56 76
r 1.238311 0 2 tcp 1040 ------- 1 0.0 3.0 12 75
+ 1.238311 2 3 tcp 1040 ------- 1 0.0 3.0 12 75
r 1.238706 2 3 cbr 1000 ------- 2 1.0 3.1 55 69
+ 1.24 1 2 cbr 1000 ------- 2 1.0 3.1 57 79
- 1.24 1 2 cbr 1000 ------- 2 1.0 3.1 57 79
r 1.242471 0 2 tcp 1040 ------- 1 0.0 3.0 13 77
+ 1.242471 2 3 tcp 1040 ------- 1 0.0 3.0 13 77
- 1.242988 2 3 tcp 1040 ------- 1 0.0 3.0 11 74
r 1.2436 2 3 tcp 1040 ------- 1 0.0 3.0 7 70
+ 1.2436 3 2 ack 40 ------- 1 3.0 0.0 7 80
- 1.2436 3 2 ack 40 ------- 1 3.0 0.0 7 80
r 1.246631 0 2 tcp 1040 ------- 1 0.0 3.0 14 78
+ 1.246631 2 3 tcp 1040 ------- 1 0.0 3.0 14 78
- 1.247882 2 3 tcp 1040 ------- 1 0.0 3.0 12 75
r 1.248494 2 3 tcp 1040 ------- 1 0.0 3.0 8 71
+ 1.248494 3 2 ack 40 ------- 1 3.0 0.0 8 81
- 1.248494 3 2 ack 40 ------- 1 3.0 0.0 8 81
- 1.252776 2 3 tcp 1040 ------- 1 0.0 3.0 13 77
r 1.253388 2 3 tcp 1040 ------- 1 0.0 3.0 9 72
+ 1.253388 3 2 ack 40 ------- 1 3.0 0.0 9 82
- 1.253388 3 2 ack 40 ------- 1 3.0 0.0 9 82
r 1.254 1 2 cbr 1000 ------- 2 1.0 3.1 57 79
+ 1.254 2 3 cbr 1000 ------- 2 1.0 3.1 57 79
- 1.257671 2 3 tcp 1040 ------- 1 0.0 3.0 14 78
r 1.258282 2 3 tcp 1040 ------- 1 0.0 3.0 10 73
+ 1.258282 3 2 ack 40 ------- 1 3.0 0.0 10 83
- 1.258282 3 2 ack 40 ------- 1 3.0 0.0 10 83
+ 1.26 1 2 cbr 1000 ------- 2 1.0 3.1 58 84
- 1.26 1 2 cbr 1000 ------- 2 1.0 3.1 58 84
- 1.262565 2 3 cbr 1000 ------- 2 1.0 3.1 57 79
r 1.262988 2 3 cbr 1000 ------- 2 1.0 3.1 56 76
r 1.263788 3 2 ack 40 ------- 1 3.0 0.0 7 80
+ 1.263788 2 0 ack 40 ------- 1 3.0 0.0 7 80
- 1.263788 2 0 ack 40 ------- 1 3.0 0.0 7 80
r 1.267882 2 3 tcp 1040 ------- 1 0.0 3.0 11 74
+ 1.267882 3 2 ack 40 ------- 1 3.0 0.0 11 85
- 1.267882 3 2 ack 40 ------- 1 3.0 0.0 11 85
r 1.268682 3 2 ack 40 ------- 1 3.0 0.0 8 81
+ 1.268682 2 0 ack 40 ------- 1 3.0 0.0 8 81
- 1.268682 2 0 ack 40 ------- 1 3.0 0.0 8 81
r 1.272776 2 3 tcp 1040 ------- 1 0.0 3.0 12 75
+ 1.272776 3 2 ack 40 ------- 1 3.0 0.0 12 86
- 1.272776 3 2 ack 40 ------- 1 3.0 0.0 12 86
r 1.273576 3 2 ack 40 ------- 1 3.0 0.0 9 82
+ 1.273576 2 0 ack 40 ------- 1 3.0 0.0 9 82
- 1.273576 2 0 ack 40 ------- 1 3.0 0.0 9 82
r 1.273948 2 0 ack 40 ------- 1 3.0 0.0 7 80
+ 1.273948 0 2 tcp 1040 ------- 1 0.0 3.0 15 87
- 1.273948 0 2 tcp 1040 ------- 1 0.0 3.0 15 87
+ 1.273948 0 2 tcp 1040 ------- 1 0.0 3.0 16 88
r 1.274 1 2 cbr 1000 ------- 2 1.0 3.1 58 84
+ 1.274 2 3 cbr 1000 ------- 2 1.0 3.1 58 84
- 1.274 2 3 cbr 1000 ------- 2 1.0 3.1 58 84
r 1.277671 2 3 tcp 1040 ------- 1 0.0 3.0 13 77
+ 1.277671 3 2 ack 40 ------- 1 3.0 0.0 13 89
- 1.277671 3 2 ack 40 ------- 1 3.0 0.0 13 89
- 1.278108 0 2 tcp 1040 ------- 1 0.0 3.0 16 88
r 1.278471 3 2 ack 40 ------- 1 3.0 0.0 10 83
+ 1.278471 2 0 ack 40 ------- 1 3.0 0.0 10 83
- 1.278471 2 0 ack 40 ------- 1 3.0 0.0 10 83
r 1.278842 2 0 ack 40 ------- 1 3.0 0.0 8 81
+ 1.278842 0 2 tcp 1040 ------- 1 0.0 3.0 17 90
+ 1.278842 0 2 tcp 1040 ------- 1 0.0 3.0 18 91
+ 1.28 1 2 cbr 1000 ------- 2 1.0 3.1 59 92
- 1.28 1 2 cbr 1000 ------- 2 1.0 3.1 59 92
- 1.282268 0 2 tcp 1040 ------- 1 0.0 3.0 17 90
r 1.282565 2 3 tcp 1040 ------- 1 0.0 3.0 14 78
+ 1.282565 3 2 ack 40 ------- 1 3.0 0.0 14 93
- 1.282565 3 2 ack 40 ------- 1 3.0 0.0 14 93
r 1.283736 2 0 ack 40 ------- 1 3.0 0.0 9 82
+ 1.283736 0 2 tcp 1040 ------- 1 0.0 3.0 19 94
+ 1.283736 0 2 tcp 1040 ------- 1 0.0 3.0 20 95
- 1.286428 0 2 tcp 1040 ------- 1 0.0 3.0 18 91
r 1.287271 2 3 cbr 1000 ------- 2 1.0 3.1 57 79
r 1.288071 3 2 ack 40 ------- 1 3.0 0.0 11 85
+ 1.288071 2 0 ack 40 ------- 1 3.0 0.0 11 85
- 1.288071 2 0 ack 40 ------- 1 3.0 0.0 11 85
r 1.288108 0 2 tcp 1040 ------- 1 0.0 3.0 15 87
+ 1.288108 2 3 tcp 1040 ------- 1 0.0 3.0 15 87
- 1.288108 2 3 tcp 1040 ------- 1 0.0 3.0 15 87
r 1.288631 2 0 ack 40 ------- 1 3.0 0.0 10 83
+ 1.288631 0 2 tcp 1040 ------- 1 0.0 3.0 21 96
+ 1.288631 0 2 tcp 1040 ------- 1 0.0 3.0 22 97
- 1.290588 0 2 tcp 1040 ------- 1 0.0 3.0 19 94
r 1.292268 0 2 tcp 1040 ------- 1 0.0 3.0 16 88
+ 1.292268 2 3 tcp 1040 ------- 1 0.0 3.0 16 88
r 1.292965 3 2 ack 40 ------- 1 3.0 0.0 12 86
+ 1.292965 2 0 ack 40 ------- 1 3.0 0.0 12 86
- 1.292965 2 0 ack 40 ------- 1 3.0 0.0 12 86
- 1.293002 2 3 tcp 1040 ------- 1 0.0 3.0 16 88
r 1.294 1 2 cbr 1000 ------- 2 1.0 3.1 59 92
+ 1.294 2 3 cbr 1000 ------- 2 1.0 3.1 59 92
- 1.294748 0 2 tcp 1040 ------- 1 0.0 3.0 20 95
r 1.296428 0 2 tcp 1040 ------- 1 0.0 3.0 17 90
+ 1.296428 2 3 tcp 1040 ------- 1 0.0 3.0 17 90
r 1.297859 3 2 ack 40 ------- 1 3.0 0.0 13 89
+ 1.297859 2 0 ack 40 ------- 1 3.0 0.0 13 89
- 1.297859 2 0 ack 40 ------- 1 3.0 0.0 13 89
- 1.297896 2 3 cbr 1000 ------- 2 1.0 3.1 59 92
r 1.298231 2 0 ack 40 ------- 1 3.0 0.0 11 85
+ 1.298231 0 2 tcp 1040 ------- 1 0.0 3.0 23 98
+ 1.298231 0 2 tcp 1040 ------- 1 0.0 3.0 24 99
r 1.298706 2 3 cbr 1000 ------- 2 1.0 3.1 58 84
- 1.298908 0 2 tcp 1040 ------- 1 0.0 3.0 21 96
+ 1.3 1 2 cbr 1000 ------- 2 1.0 3.1 60 100
- 1.3 1 2 cbr 1000 ------- 2 1.0 3.1 60 100
r 1.300588 0 2 tcp 1040 ------- 1 0.0 3.0 18 91
+ 1.300588 2 3 tcp 1040 ------- 1 0.0 3.0 18 91
- 1.302602 2 3 tcp 1040 ------- 1 0.0 3.0 17 90
r 1.302753 3 2 ack 40 ------- 1 3.0 0.0 14 93
+ 1.302753 2 0 ack 40 ------- 1 3.0 0.0 14 93
- 1.302753 2 0 ack 40 ------- 1 3.0 0.0 14 93
- 1.303068 0 2 tcp 1040 ------- 1 0.0 3.0 22 97
r 1.303125 2 0 ack 40 ------- 1 3.0 0.0 12 86
+ 1.303125 0 2 tcp 1040 ------- 1 0.0 3.0 25 101
+ 1.303125 0 2 tcp 1040 ------- 1 0.0 3.0 26 102
r 1.304748 0 2 tcp 1040 ------- 1 0.0 3.0 19 94
+ 1.304748 2 3 tcp 1040 ------- 1 0.0 3.0 19 94
- 1.307228 0 2 tcp 1040 ------- 1 0.0 3.0 23 98
- 1.307496 2 3 tcp 1040 ------- 1 0.0 3.0 18 91
r 1.308019 2 0 ack 40 ------- 1 3.0 0.0 13 89
+ 1.308019 0 2 tcp 1040 ------- 1 0.0 3.0 27 103
+ 1.308019 0 2 tcp 1040 ------- 1 0.0 3.0 28 104
r 1.308908 0 2 tcp 1040 ------- 1 0.0 3.0 20 95
+ 1.308908 2 3 tcp 1040 ------- 1 0.0 3.0 20 95
- 1.311388 0 2 tcp 1040 ------- 1 0.0 3.0 24 99
- 1.312391 2 3 tcp 1040 ------- 1 0.0 3.0 19 94
r 1.312913 2 0 ack 40 ------- 1 3.0 0.0 14 93
+ 1.312913 0 2 tcp 1040 ------- 1 0.0 3.0 29 105
+ 1.312913 0 2 tcp 1040 ------- 1 0.0 3.0 30 106
r 1.313002 2 3 tcp 1040 ------- 1 0.0 3.0 15 87
+ 1.313002 3 2 ack 40 ------- 1 3.0 0.0 15 107
- 1.313002 3 2 ack 40 ------- 1 3.0 0.0 15 107
r 1.313068 0 2 tcp 1040 ------- 1 0.0 3.0 21 96
+ 1.313068 2 3 tcp 1040 ------- 1 0.0 3.0 21 96
r 1.314 1 2 cbr 1000 ------- 2 1.0 3.1 60 100
+ 1.314 2 3 cbr 1000 ------- 2 1.0 3.1 60 100
- 1.315548 0 2 tcp 1040 ------- 1 0.0 3.0 25 101
r 1.317228 0 2 tcp 1040 ------- 1 0.0 3.0 22 97
+ 1.317228 2 3 tcp 1040 ------- 1 0.0 3.0 22 97
- 1.317285 2 3 tcp 1040 ------- 1 0.0 3.0 20 95
r 1.317896 2 3 tcp 1040 ------- 1 0.0 3.0 16 88
+ 1.317896 3 2 ack 40 ------- 1 3.0 0.0 16 108
- 1.317896 3 2 ack 40 ------- 1 3.0 0.0 16 108
- 1.319708 0 2 tcp 1040 ------- 1 0.0 3.0 26 102
+ 1.32 1 2 cbr 1000 ------- 2 1.0 3.1 61 109
- 1.32 1 2 cbr 1000 ------- 2 1.0 3.1 61 109
r 1.321388 0 2 tcp 1040 ------- 1 0.0 3.0 23 98
+ 1.321388 2 3 tcp 1040 ------- 1 0.0 3.0 23 98
- 1.322179 2 3 tcp 1040 ------- 1 0.0 3.0 21 96
r 1.322602 2 3 cbr 1000 ------- 2 1.0 3.1 59 92
- 1.323868 0 2 tcp 1040 ------- 1 0.0 3.0 27 103
r 1.325548 0 2 tcp 1040 ------- 1 0.0 3.0 24 99
+ 1.325548 2 3 tcp 1040 ------- 1 0.0 3.0 24 99
- 1.327073 2 3 cbr 1000 ------- 2 1.0 3.1 60 100
r 1.327496 2 3 tcp 1040 ------- 1 0.0 3.0 17 90
+ 1.327496 3 2 ack 40 ------- 1 3.0 0.0 17 110
- 1.327496 3 2 ack 40 ------- 1 3.0 0.0 17 110
- 1.328028 0 2 tcp 1040 ------- 1 0.0 3.0 28 104
r 1.329708 0 2 tcp 1040 ------- 1 0.0 3.0 25 101
+ 1.329708 2 3 tcp 1040 ------- 1 0.0 3.0 25 101
- 1.331779 2 3 tcp 1040 ------- 1 0.0 3.0 22 97
- 1.332188 0 2 tcp 1040 ------- 1 0.0 3.0 29 105
r 1.332391 2 3 tcp 1040 ------- 1 0.0 3.0 18 91
+ 1.332391 3 2 ack 40 ------- 1 3.0 0.0 18 111
- 1.332391 3 2 ack 40 ------- 1 3.0 0.0 18 111
r 1.333191 3 2 ack 40 ------- 1 3.0 0.0 15 107
+ 1.333191 2 0 ack 40 ------- 1 3.0 0.0 15 107
- 1.333191 2 0 ack 40 ------- 1 3.0 0.0 15 107
r 1.333868 0 2 tcp 1040 ------- 1 0.0 3.0 26 102
+ 1.333868 2 3 tcp 1040 ------- 1 0.0 3.0 26 102
r 1.334 1 2 cbr 1000 ------- 2 1.0 3.1 61 109
+ 1.334 2 3 cbr 1000 ------- 2 1.0 3.1 61 109
- 1.336348 0 2 tcp 1040 ------- 1 0.0 3.0 30 106
- 1.336673 2 3 tcp 1040 ------- 1 0.0 3.0 23 98
r 1.337285 2 3 tcp 1040 ------- 1 0.0 3.0 19 94
+ 1.337285 3 2 ack 40 ------- 1 3.0 0.0 19 112
- 1.337285 3 2 ack 40 ------- 1 3.0 0.0 19 112
r 1.338028 0 2 tcp 1040 ------- 1 0.0 3.0 27 103
+ 1.338028 2 3 tcp 1040 ------- 1 0.0 3.0 27 103
r 1.338085 3 2 ack 40 ------- 1 3.0 0.0 16 108
+ 1.338085 2 0 ack 40 ------- 1 3.0 0.0 16 108
- 1.338085 2 0 ack 40 ------- 1 3.0 0.0 16 108
+ 1.34 1 2 cbr 1000 ------- 2 1.0 3.1 62 113
- 1.34 1 2 cbr 1000 ------- 2 1.0 3.1 62 113
- 1.341567 2 3 tcp 1040 ------- 1 0.0 3.0 24 99
r 1.342179 2 3 tcp 1040 ------- 1 0.0 3.0 20 95
+ 1.342179 3 2 ack 40 ------- 1 3.0 0.0 20 114
- 1.342179 3 2 ack 40 ------- 1 3.0 0.0 20 114
r 1.342188 0 2 tcp 1040 ------- 1 0.0 3.0 28 104
+ 1.342188 2 3 tcp 1040 ------- 1 0.0 3.0 28 104
r 1.343351 2 0 ack 40 ------- 1 3.0 0.0 15 107
+ 1.343351 0 2 tcp 1040 ------- 1 0.0 3.0 31 115
- 1.343351 0 2 tcp 1040 ------- 1 0.0 3.0 31 115
+ 1.343351 0 2 tcp 1040 ------- 1 0.0 3.0 32 116
r 1.346348 0 2 tcp 1040 ------- 1 0.0 3.0 29 105
+ 1.346348 2 3 tcp 1040 ------- 1 0.0 3.0 29 105
- 1.346461 2 3 tcp 1040 ------- 1 0.0 3.0 25 101
r 1.347073 2 3 tcp 1040 ------- 1 0.0 3.0 21 96
+ 1.347073 3 2 ack 40 ------- 1 3.0 0.0 21 117
- 1.347073 3 2 ack 40 ------- 1 3.0 0.0 21 117
- 1.347511 0 2 tcp 1040 ------- 1 0.0 3.0 32 116