+ 0.5 0 1 tcp 40 ------- 1 0.0 2.0 0 0
- 0.5 0 1 tcp 40 ------- 1 0.0 2.0 0 0
r 0.510032 0 1 tcp 40 ------- 1 0.0 2.0 0 0
+ 0.510032 1 2 tcp 40 ------- 1 0.0 2.0 0 0
- 0.510032 1 2 tcp 40 ------- 1 0.0 2.0 0 0
r 0.515352 1 2 tcp 40 ------- 1 0.0 2.0 0 0
+ 0.515352 2 1 ack 40 ------- 1 2.0 0.0 0 1
- 0.515352 2 1 ack 40 ------- 1 2.0 0.0 0 1
r 0.520672 2 1 ack 40 ------- 1 2.0 0.0 0 1
+ 0.520672 1 0 ack 40 ------- 1 2.0 0.0 0 1
- 0.520672 1 0 ack 40 ------- 1 2.0 0.0 0 1
r 0.530704 1 0 ack 40 ------- 1 2.0 0.0 0 1
+ 0.530704 0 1 tcp 1040 ------- 1 0.0 2.0 1 2
- 0.530704 0 1 tcp 1040 ------- 1 0.0 2.0 1 2
+ 0.530704 0 1 tcp 1040 ------- 1 0.0 2.0 2 3
- 0.531536 0 1 tcp 1040 ------- 1 0.0 2.0 2 3
r 0.541536 0 1 tcp 1040 ------- 1 0.0 2.0 1 2
+ 0.541536 1 2 tcp 1040 ------- 1 0.0 2.0 1 2
- 0.541536 1 2 tcp 1040 ------- 1 0.0 2.0 1 2
r 0.542368 0 1 tcp 1040 ------- 1 0.0 2.0 2 3
+ 0.542368 1 2 tcp 1040 ------- 1 0.0 2.0 2 3
- 0.549856 1 2 tcp 1040 ------- 1 0.0 2.0 2 3
r 0.554856 1 2 tcp 1040 ------- 1 0.0 2.0 1 2
+ 0.554856 2 1 ack 40 ------- 1 2.0 0.0 1 4
- 0.554856 2 1 ack 40 ------- 1 2.0 0.0 1 4
r 0.560176 2 1 ack 40 ------- 1 2.0 0.0 1 4
+ 0.560176 1 0 ack 40 ------- 1 2.0 0.0 1 4
- 0.560176 1 0 ack 40 ------- 1 2.0 0.0 1 4
r 0.563176 1 2 tcp 1040 ------- 1 0.0 2.0 2 3
+ 0.563176 2 1 ack 40 ------- 1 2.0 0.0 2 5
- 0.563176 2 1 ack 40 ------- 1 2.0 0.0 2 5
r 0.568496 2 1 ack 40 ------- 1 2.0 0.0 2 5
+ 0.568496 1 0 ack 40 ------- 1 2.0 0.0 2 5
- 0.568496 1 0 ack 40 ------- 1 2.0 0.0 2 5
r 0.570208 1 0 ack 40 ------- 1 2.0 0.0 1 4
+ 0.570208 0 1 tcp 1040 ------- 1 0.0 2.0 3 6
- 0.570208 0 1 tcp 1040 ------- 1 0.0 2.0 3 6
+ 0.570208 0 1 tcp 1040 ------- 1 0.0 2.0 4 7
- 0.57104 0 1 tcp 1040 ------- 1 0.0 2.0 4 7
r 0.578528 1 0 ack 40 ------- 1 2.0 0.0 2 5
+ 0.578528 0 1 tcp 1040 ------- 1 0.0 2.0 5 8
- 0.578528 0 1 tcp 1040 ------- 1 0.0 2.0 5 8
+ 0.578528 0 1 tcp 1040 ------- 1 0.0 2.0 6 9
- 0.57936 0 1 tcp 1040 ------- 1 0.0 2.0 6 9
r 0.58104 0 1 tcp 1040 ------- 1 0.0 2.0 3 6
+ 0.58104 1 2 tcp 1040 ------- 1 0.0 2.0 3 6
- 0.58104 1 2 tcp 1040 ------- 1 0.0 2.0 3 6
r 0.581872 0 1 tcp 1040 ------- 1 0.0 2.0 4 7
+ 0.581872 1 2 tcp 1040 ------- 1 0.0 2.0 4 7
r 0.58936 0 1 tcp 1040 ------- 1 0.0 2.0 5 8
+ 0.58936 1 2 tcp 1040 ------- 1 0.0 2.0 5 8
- 0.58936 1 2 tcp 1040 ------- 1 0.0 2.0 4 7
r 0.590192 0 1 tcp 1040 ------- 1 0.0 2.0 6 9
+ 0.590192 1 2 tcp 1040 ------- 1 0.0 2.0 6 9
r 0.59436 1 2 tcp 1040 ------- 1 0.0 2.0 3 6
+ 0.59436 2 1 ack 40 ------- 1 2.0 0.0 3 10
- 0.59436 2 1 ack 40 ------- 1 2.0 0.0 3 10
- 0.59768 1 2 tcp 1040 ------- 1 0.0 2.0 5 8
r 0.59968 2 1 ack 40 ------- 1 2.0 0.0 3 10
+ 0.59968 1 0 ack 40 ------- 1 2.0 0.0 3 10
- 0.59968 1 0 ack 40 ------- 1 2.0 0.0 3 10
r 0.60268 1 2 tcp 1040 ------- 1 0.0 2.0 4 7
+ 0.60268 2 1 ack 40 ------- 1 2.0 0.0 4 11
- 0.60268 2 1 ack 40 ------- 1 2.0 0.0 4 11
- 0.606 1 2 tcp 1040 ------- 1 0.0 2.0 6 9
r 0.608 2 1 ack 40 ------- 1 2.0 0.0 4 11
+ 0.608 1 0 ack 40 ------- 1 2.0 0.0 4 11
- 0.608 1 0 ack 40 ------- 1 2.0 0.0 4 11
r 0.609712 1 0 ack 40 ------- 1 2.0 0.0 3 10
+ 0.609712 0 1 tcp 1040 ------- 1 0.0 2.0 7 12
- 0.609712 0 1 tcp 1040 ------- 1 0.0 2.0 7 12
+ 0.609712 0 1 tcp 1040 ------- 1 0.0 2.0 8 13
- 0.610544 0 1 tcp 1040 ------- 1 0.0 2.0 8 13
r 0.611 1 2 tcp 1040 ------- 1 0.0 2.0 5 8
+ 0.611 2 1 ack 40 ------- 1 2.0 0.0 5 14
- 0.611 2 1 ack 40 ------- 1 2.0 0.0 5 14
r 0.61632 2 1 ack 40 ------- 1 2.0 0.0 5 14
+ 0.61632 1 0 ack 40 ------- 1 2.0 0.0 5 14
- 0.61632 1 0 ack 40 ------- 1 2.0 0.0 5 14
r 0.618032 1 0 ack 40 ------- 1 2.0 0.0 4 11
+ 0.618032 0 1 tcp 1040 ------- 1 0.0 2.0 9 15
- 0.618032 0 1 tcp 1040 ------- 1 0.0 2.0 9 15
+ 0.618032 0 1 tcp 1040 ------- 1 0.0 2.0 10 16
- 0.618864 0 1 tcp 1040 ------- 1 0.0 2.0 10 16
r 0.61932 1 2 tcp 1040 ------- 1 0.0 2.0 6 9
+ 0.61932 2 1 ack 40 ------- 1 2.0 0.0 6 17
- 0.61932 2 1 ack 40 ------- 1 2.0 0.0 6 17
r 0.620544 0 1 tcp 1040 ------- 1 0.0 2.0 7 12
+ 0.620544 1 2 tcp 1040 ------- 1 0.0 2.0 7 12
- 0.620544 1 2 tcp 1040 ------- 1 0.0 2.0 7 12
r 0.621376 0 1 tcp 1040 ------- 1 0.0 2.0 8 13
+ 0.621376 1 2 tcp 1040 ------- 1 0.0 2.0 8 13
r 0.62464 2 1 ack 40 ------- 1 2.0 0.0 6 17
+ 0.62464 1 0 ack 40 ------- 1 2.0 0.0 6 17
- 0.62464 1 0 ack 40 ------- 1 2.0 0.0 6 17
r 0.626352 1 0 ack 40 ------- 1 2.0 0.0 5 14
+ 0.626352 0 1 tcp 1040 ------- 1 0.0 2.0 11 18
- 0.626352 0 1 tcp 1040 ------- 1 0.0 2.0 11 18
+ 0.626352 0 1 tcp 1040 ------- 1 0.0 2.0 12 19
- 0.627184 0 1 tcp 1040 ------- 1 0.0 2.0 12 19
r 0.628864 0 1 tcp 1040 ------- 1 0.0 2.0 9 15
+ 0.628864 1 2 tcp 1040 ------- 1 0.0 2.0 9 15
- 0.628864 1 2 tcp 1040 ------- 1 0.0 2.0 8 13
r 0.629696 0 1 tcp 1040 ------- 1 0.0 2.0 10 16
+ 0.629696 1 2 tcp 1040 ------- 1 0.0 2.0 10 16
r 0.633864 1 2 tcp 1040 ------- 1 0.0 2.0 7 12
+ 0.633864 2 1 ack 40 ------- 1 2.0 0.0 7 20
- 0.633864 2 1 ack 40 ------- 1 2.0 0.0 7 20
r 0.634672 1 0 ack 40 ------- 1 2.0 0.0 6 17
+ 0.634672 0 1 tcp 1040 ------- 1 0.0 2.0 13 21
- 0.634672 0 1 tcp 1040 ------- 1 0.0 2.0 13 21
+ 0.634672 0 1 tcp 1040 ------- 1 0.0 2.0 14 22
- 0.635504 0 1 tcp 1040 ------- 1 0.0 2.0 14 22
r 0.637184 0 1 tcp 1040 ------- 1 0.0 2.0 11 18
+ 0.637184 1 2 tcp 1040 ------- 1 0.0 2.0 11 18
- 0.637184 1 2 tcp 1040 ------- 1 0.0 2.0 9 15
r 0.638016 0 1 tcp 1040 ------- 1 0.0 2.0 12 19
+ 0.638016 1 2 tcp 1040 ------- 1 0.0 2.0 12 19
r 0.639184 2 1 ack 40 ------- 1 2.0 0.0 7 20
+ 0.639184 1 0 ack 40 ------- 1 2.0 0.0 7 20
- 0.639184 1 0 ack 40 ------- 1 2.0 0.0 7 20
r 0.642184 1 2 tcp 1040 ------- 1 0.0 2.0 8 13
+ 0.642184 2 1 ack 40 ------- 1 2.0 0.0 8 23
- 0.642184 2 1 ack 40 ------- 1 2.0 0.0 8 23
r 0.645504 0 1 tcp 1040 ------- 1 0.0 2.0 13 21
+ 0.645504 1 2 tcp 1040 ------- 1 0.0 2.0 13 21
- 0.645504 1 2 tcp 1040 ------- 1 0.0 2.0 10 16
r 0.646336 0 1 tcp 1040 ------- 1 0.0 2.0 14 22
+ 0.646336 1 2 tcp 1040 ------- 1 0.0 2.0 14 22
r 0.647504 2 1 ack 40 ------- 1 2.0 0.0 8 23
+ 0.647504 1 0 ack 40 ------- 1 2.0 0.0 8 23
- 0.647504 1 0 ack 40 ------- 1 2.0 0.0 8 23
r 0.649216 1 0 ack 40 ------- 1 2.0 0.0 7 20
+ 0.649216 0 1 tcp 1040 ------- 1 0.0 2.0 15 24
- 0.649216 0 1 tcp 1040 ------- 1 0.0 2.0 15 24
+ 0.649216 0 1 tcp 1040 ------- 1 0.0 2.0 16 25
- 0.650048 0 1 tcp 1040 ------- 1 0.0 2.0 16 25
r 0.650504 1 2 tcp 1040 ------- 1 0.0 2.0 9 15
+ 0.650504 2 1 ack 40 ------- 1 2.0 0.0 9 26
- 0.650504 2 1 ack 40 ------- 1 2.0 0.0 9 26
- 0.653824 1 2 tcp 1040 ------- 1 0.0 2.0 11 18
r 0.655824 2 1 ack 40 ------- 1 2.0 0.0 9 26
+ 0.655824 1 0 ack 40 ------- 1 2.0 0.0 9 26
- 0.655824 1 0 ack 40 ------- 1 2.0 0.0 9 26
r 0.657536 1 0 ack 40 ------- 1 2.0 0.0 8 23
+ 0.657536 0 1 tcp 1040 ------- 1 0.0 2.0 17 27
- 0.657536 0 1 tcp 1040 ------- 1 0.0 2.0 17 27
+ 0.657536 0 1 tcp 1040 ------- 1 0.0 2.0 18 28
- 0.658368 0 1 tcp 1040 ------- 1 0.0 2.0 18 28
r 0.658824 1 2 tcp 1040 ------- 1 0.0 2.0 10 16
+ 0.658824 2 1 ack 40 ------- 1 2.0 0.0 10 29
- 0.658824 2 1 ack 40 ------- 1 2.0 0.0 10 29
r 0.660048 0 1 tcp 1040 ------- 1 0.0 2.0 15 24
+ 0.660048 1 2 tcp 1040 ------- 1 0.0 2.0 15 24
r 0.66088 0 1 tcp 1040 ------- 1 0.0 2.0 16 25
+ 0.66088 1 2 tcp 1040 ------- 1 0.0 2.0 16 25
- 0.662144 1 2 tcp 1040 ------- 1 0.0 2.0 12 19
r 0.664144 2 1 ack 40 ------- 1 2.0 0.0 10 29
+ 0.664144 1 0 ack 40 ------- 1 2.0 0.0 10 29
- 0.664144 1 0 ack 40 ------- 1 2.0 0.0 10 29
r 0.665856 1 0 ack 40 ------- 1 2.0 0.0 9 26
+ 0.665856 0 1 tcp 1040 ------- 1 0.0 2.0 19 30
- 0.665856 0 1 tcp 1040 ------- 1 0.0 2.0 19 30
+ 0.665856 0 1 tcp 1040 ------- 1 0.0 2.0 20 31
- 0.666688 0 1 tcp 1040 ------- 1 0.0 2.0 20 31
r 0.667144 1 2 tcp 1040 ------- 1 0.0 2.0 11 18
+ 0.667144 2 1 ack 40 ------- 1 2.0 0.0 11 32
- 0.667144 2 1 ack 40 ------- 1 2.0 0.0 11 32
r 0.668368 0 1 tcp 1040 ------- 1 0.0 2.0 17 27
+ 0.668368 1 2 tcp 1040 ------- 1 0.0 2.0 17 27
r 0.6692 0 1 tcp 1040 ------- 1 0.0 2.0 18 28
+ 0.6692 1 2 tcp 1040 ------- 1 0.0 2.0 18 28
- 0.670464 1 2 tcp 1040 ------- 1 0.0 2.0 13 21
r 0.672464 2 1 ack 40 ------- 1 2.0 0.0 11 32
+ 0.672464 1 0 ack 40 ------- 1 2.0 0.0 11 32
- 0.672464 1 0 ack 40 ------- 1 2.0 0.0 11 32
r 0.674176 1 0 ack 40 ------- 1 2.0 0.0 10 29
+ 0.674176 0 1 tcp 1040 ------- 1 0.0 2.0 21 33
- 0.674176 0 1 tcp 1040 ------- 1 0.0 2.0 21 33
+ 0.674176 0 1 tcp 1040 ------- 1 0.0 2.0 22 34
- 0.675008 0 1 tcp 1040 ------- 1 0.0 2.0 22 34
r 0.675464 1 2 tcp 1040 ------- 1 0.0 2.0 12 19
+ 0.675464 2 1 ack 40 ------- 1 2.0 0.0 12 35
- 0.675464 2 1 ack 40 ------- 1 2.0 0.0 12 35
r 0.676688 0 1 tcp 1040 ------- 1 0.0 2.0 19 30
+ 0.676688 1 2 tcp 1040 ------- 1 0.0 2.0 19 30
r 0.67752 0 1 tcp 1040 ------- 1 0.0 2.0 20 31
+ 0.67752 1 2 tcp 1040 ------- 1 0.0 2.0 20 31
- 0.678784 1 2 tcp 1040 ------- 1 0.0 2.0 14 22
r 0.680784 2 1 ack 40 ------- 1 2.0 0.0 12 35
+ 0.680784 1 0 ack 40 ------- 1 2.0 0.0 12 35
- 0.680784 1 0 ack 40 ------- 1 2.0 0.0 12 35
r 0.682496 1 0 ack 40 ------- 1 2.0 0.0 11 32
+ 0.682496 0 1 tcp 1040 ------- 1 0.0 2.0 23 36
- 0.682496 0 1 tcp 1040 ------- 1 0.0 2.0 23 36
+ 0.682496 0 1 tcp 1040 ------- 1 0.0 2.0 24 37
- 0.683328 0 1 tcp 1040 ------- 1 0.0 2.0 24 37
r 0.683784 1 2 tcp 1040 ------- 1 0.0 2.0 13 21
+ 0.683784 2 1 ack 40 ------- 1 2.0 0.0 13 38
- 0.683784 2 1 ack 40 ------- 1 2.0 0.0 13 38
r 0.685008 0 1 tcp 1040 ------- 1 0.0 2.0 21 33
+ 0.685008 1 2 tcp 1040 ------- 1 0.0 2.0 21 33
r 0.68584 0 1 tcp 1040 ------- 1 0.0 2.0 22 34
+ 0.68584 1 2 tcp 1040 ------- 1 0.0 2.0 22 34
- 0.687104 1 2 tcp 1040 ------- 1 0.0 2.0 15 24
r 0.689104 2 1 ack 40 ------- 1 2.0 0.0 13 38
+ 0.689104 1 0 ack 40 ------- 1 2.0 0.0 13 38
- 0.689104 1 0 ack 40 ------- 1 2.0 0.0 13 38
r 0.690816 1 0 ack 40 ------- 1 2.0 0.0 12 35
+ 0.690816 0 1 tcp 1040 ------- 1 0.0 2.0 25 39
- 0.690816 0 1 tcp 1040 ------- 1 0.0 2.0 25 39
+ 0.690816 0 1 tcp 1040 ------- 1 0.0 2.0 26 40
- 0.691648 0 1 tcp 1040 ------- 1 0.0 2.0 26 40
r 0.692104 1 2 tcp 1040 ------- 1 0.0 2.0 14 22
+ 0.692104 2 1 ack 40 ------- 1 2.0 0.0 14 41
- 0.692104 2 1 ack 40 ------- 1 2.0 0.0 14 41
r 0.693328 0 1 tcp 1040 ------- 1 0.0 2.0 23 36
+ 0.693328 1 2 tcp 1040 ------- 1 0.0 2.0 23 36
r 0.69416 0 1 tcp 1040 ------- 1 0.0 2.0 24 37
+ 0.69416 1 2 tcp 1040 ------- 1 0.0 2.0 24 37
- 0.695424 1 2 tcp 1040 ------- 1 0.0 2.0 16 25
r 0.697424 2 1 ack 40 ------- 1 2.0 0.0 14 41
+ 0.697424 1 0 ack 40 ------- 1 2.0 0.0 14 41
- 0.697424 1 0 ack 40 ------- 1 2.0 0.0 14 41
r 0.699136 1 0 ack 40 ------- 1 2.0 0.0 13 38
+ 0.699136 0 1 tcp 1040 ------- 1 0.0 2.0 27 42
- 0.699136 0 1 tcp 1040 ------- 1 0.0 2.0 27 42
+ 0.699136 0 1 tcp 1040 ------- 1 0.0 2.0 28 43
- 0.699968 0 1 tcp 1040 ------- 1 0.0 2.0 28 43
r 0.700424 1 2 tcp 1040 ------- 1 0.0 2.0 15 24
+ 0.700424 2 1 ack 40 ------- 1 2.0 0.0 15 44
- 0.700424 2 1 ack 40 ------- 1 2.0 0.0 15 44
r 0.701648 0 1 tcp 1040 ------- 1 0.0 2.0 25 39
+ 0.701648 1 2 tcp 1040 ------- 1 0.0 2.0 25 39
r 0.70248 0 1 tcp 1040 ------- 1 0.0 2.0 26 40
+ 0.70248 1 2 tcp 1040 ------- 1 0.0 2.0 26 40
d 0.70248 1 2 tcp 1040 ------- 1 0.0 2.0 26 40
- 0.703744 1 2 tcp 1040 ------- 1 0.0 2.0 17 27
r 0.705744 2 1 ack 40 ------- 1 2.0 0.0 15 44
+ 0.705744 1 0 ack 40 ------- 1 2.0 0.0 15 44
- 0.705744 1 0 ack 40 ------- 1 2.0 0.0 15 44
r 0.707456 1 0 ack 40 ------- 1 2.0 0.0 14 41
+ 0.707456 0 1 tcp 1040 ------- 1 0.0 2.0 29 45
- 0.707456 0 1 tcp 1040 ------- 1 0.0 2.0 29 45
+ 0.707456 0 1 tcp 1040 ------- 1 0.0 2.0 30 46
- 0.708288 0 1 tcp 1040 ------- 1 0.0 2.0 30 46
r 0.708744 1 2 tcp 1040 ------- 1 0.0 2.0 16 25
+ 0.708744 2 1 ack 40 ------- 1 2.0 0.0 16 47
- 0.708744 2 1 ack 40 ------- 1 2.0 0.0 16 47
r 0.709968 0 1 tcp 1040 ------- 1 0.0 2.0 27 42
+ 0.709968 1 2 tcp 1040 ------- 1 0.0 2.0 27 42
r 0.7108 0 1 tcp 1040 ------- 1 0.0 2.0 28 43
+ 0.7108 1 2 tcp 1040 ------- 1 0.0 2.0 28 43
d 0.7108 1 2 tcp 1040 ------- 1 0.0 2.0 28 43
- 0.712064 1 2 tcp 1040 ------- 1 0.0 2.0 18 28
r 0.714064 2 1 ack 40 ------- 1 2.0 0.0 16 47
+ 0.714064 1 0 ack 40 ------- 1 2.0 0.0 16 47
- 0.714064 1 0 ack 40 ------- 1 2.0 0.0 16 47
r 0.715776 1 0 ack 40 ------- 1 2.0 0.0 15 44
+ 0.715776 0 1 tcp 1040 ------- 1 0.0 2.0 31 48
- 0.715776 0 1 tcp 1040 ------- 1 0.0 2.0 31 48
+ 0.715776 0 1 tcp 1040 ------- 1 0.0 2.0 32 49
- 0.716608 0 1 tcp 1040 ------- 1 0.0 2.0 32 49
r 0.717064 1 2 tcp 1040 ------- 1 0.0 2.0 17 27
+ 0.717064 2 1 ack 40 ------- 1 2.0 0.0 17 50
- 0.717064 2 1 ack 40 ------- 1 2.0 0.0 17 50
r 0.718288 0 1 tcp 1040 ------- 1 0.0 2.0 29 45
+ 0.718288 1 2 tcp 1040 ------- 1 0.0 2.0 29 45
r 0.71912 0 1 tcp 1040 ------- 1 0.0 2.0 30 46
+ 0.71912 1 2 tcp 1040 ------- 1 0.0 2.0 30 46
d 0.71912 1 2 tcp 1040 ------- 1 0.0 2.0 30 46
- 0.720384 1 2 tcp 1040 ------- 1 0.0 2.0 19 30
r 0.722384 2 1 ack 40 ------- 1 2.0 0.0 17 50
+ 0.722384 1 0 ack 40 ------- 1 2.0 0.0 17 50
- 0.722384 1 0 ack 40 ------- 1 2.0 0.0 17 50
r 0.724096 1 0 ack 40 ------- 1 2.0 0.0 16 47
+ 0.724096 0 1 tcp 1040 ------- 1 0.0 2.0 33 51
- 0.724096 0 1 tcp 1040 ------- 1 0.0 2.0 33 51
+ 0.724096 0 1 tcp 1040 ------- 1 0.0 2.0 34 52
- 0.724928 0 1 tcp 1040 ------- 1 0.0 2.0 34 52
r 0.725384 1 2 tcp 1040 ------- 1 0.0 2.0 18 28
+ 0.725384 2 1 ack 40 ------- 1 2.0 0.0 18 53
- 0.725384 2 1 ack 40 ------- 1 2.0 0.0 18 53
r 0.726608 0 1 tcp 1040 ------- 1 0.0 2.0 31 48
+ 0.726608 1 2 tcp 1040 ------- 1 0.0 2.0 31 48
r 0.72744 0 1 tcp 1040 ------- 1 0.0 2.0 32 49
+ 0.72744 1 2 tcp 1040 ------- 1 0.0 2.0 32 49
d 0.72744 1 2 tcp 1040 ------- 1 0.0 2.0 32 49
- 0.728704 1 2 tcp 1040 ------- 1 0.0 2.0 20 31
r 0.730704 2 1 ack 40 ------- 1 2.0 0.0 18 53
+ 0.730704 1 0 ack 40 ------- 1 2.0 0.0 18 53
- 0.730704 1 0 ack 40 ------- 1 2.0 0.0 18 53
r 0.732416 1 0 ack 40 ------- 1 2.0 0.0 17 50
+ 0.732416 0 1 tcp 1040 ------- 1 0.0 2.0 35 54
- 0.732416 0 1 tcp 1040 ------- 1 0.0 2.0 35 54
+ 0.732416 0 1 tcp 1040 ------- 1 0.0 2.0 36 55
- 0.733248 0 1 tcp 1040 ------- 1 0.0 2.0 36 55
r 0.733704 1 2 tcp 1040 ------- 1 0.0 2.0 19 30
+ 0.733704 2 1 ack 40 ------- 1 2.0 0.0 19 56
- 0.733704 2 1 ack 40 ------- 1 2.0 0.0 19 56
r 0.734928 0 1 tcp 1040 ------- 1 0.0 2.0 33 51
+ 0.734928 1 2 tcp 1040 ------- 1 0.0 2.0 33 51
r 0.73576 0 1 tcp 1040 ------- 1 0.0 2.0 34 52
+ 0.73576 1 2 tcp 1040 ------- 1 0.0 2.0 34 52
d 0.73576 1 2 tcp 1040 ------- 1 0.0 2.0 34 52
- 0.737024 1 2 tcp 1040 ------- 1 0.0 2.0 21 33
r 0.739024 2 1 ack 40 ------- 1 2.0 0.0 19 56
+ 0.739024 1 0 ack 40 ------- 1 2.0 0.0 19 56
- 0.739024 1 0 ack 40 ------- 1 2.0 0.0 19 56
r 0.740736 1 0 ack 40 ------- 1 2.0 0.0 18 53
+ 0.740736 0 1 tcp 1040 ------- 1 0.0 2.0 37 57
- 0.740736 0 1 tcp 1040 ------- 1 0.0 2.0 37 57
+ 0.740736 0 1 tcp 1040 ------- 1 0.0 2.0 38 58
- 0.741568 0 1 tcp 1040 ------- 1 0.0 2.0 38 58
r 0.742024 1 2 tcp 1040 ------- 1 0.0 2.0 20 31
+ 0.742024 2 1 ack 40 ------- 1 2.0 0.0 20 59
- 0.742024 2 1 ack 40 ------- 1 2.0 0.0 20 59
r 0.743248 0 1 tcp 1040 ------- 1 0.0 2.0 35 54
+ 0.743248 1 2 tcp 1040 ------- 1 0.0 2.0 35 54
r 0.74408 0 1 tcp 1040 ------- 1 0.0 2.0 36 55
+ 0.74408 1 2 tcp 1040 ------- 1 0.0 2.0 36 55
d 0.74408 1 2 tcp 1040 ------- 1 0.0 2.0 36 55
- 0.745344 1 2 tcp 1040 ------- 1 0.0 2.0 22 34
r 0.747344 2 1 ack 40 ------- 1 2.0 0.0 20 59
+ 0.747344 1 0 ack 40 ------- 1 2.0 0.0 20 59
- 0.747344 1 0 ack 40 ------- 1 2.0 0.0 20 59
r 0.749056 1 0 ack 40 ------- 1 2.0 0.0 19 56
+ 0.749056 0 1 tcp 1040 ------- 1 0.0 2.0 39 60
- 0.749056 0 1 tcp 1040 ------- 1 0.0 2.0 39 60
r 0.750344 1 2 tcp 1040 ------- 1 0.0 2.0 21 33
+ 0.750344 2 1 ack 40 ------- 1 2.0 0.0 21 61
- 0.750344 2 1 ack 40 ------- 1 2.0 0.0 21 61
r 0.751568 0 1 tcp 1040 ------- 1 0.0 2.0 37 57
+ 0.751568 1 2 tcp 1040 ------- 1 0.0 2.0 37 57
r 0.7524 0 1 tcp 1040 ------- 1 0.0 2.0 38 58
+ 0.7524 1 2 tcp 1040 ------- 1 0.0 2.0 38 58
d 0.7524 1 2 tcp 1040 ------- 1 0.0 2.0 38 58
- 0.753664 1 2 tcp 1040 ------- 1 0.0 2.0 23 36
r 0.755664 2 1 ack 40 ------- 1 2.0 0.0 21 61
+ 0.755664 1 0 ack 40 ------- 1 2.0 0.0 21 61
- 0.755664 1 0 ack 40 ------- 1 2.0 0.0 21 61
r 0.757376 1 0 ack 40 ------- 1 2.0 0.0 20 59
+ 0.757376 0 1 tcp 1040 ------- 1 0.0 2.0 40 62
- 0.757376 0 1 tcp 1040 ------- 1 0.0 2.0 40 62
r 0.758664 1 2 tcp 1040 ------- 1 0.0 2.0 22 34
+ 0.758664 2 1 ack 40 ------- 1 2.0 0.0 22 63
- 0.758664 2 1 ack 40 ------- 1 2.0 0.0 22 63
r 0.759888 0 1 tcp 1040 ------- 1 0.0 2.0 39 60
+ 0.759888 1 2 tcp 1040 ------- 1 0.0 2.0 39 60
- 0.761984 1 2 tcp 1040 ------- 1 0.0 2.0 24 37
r 0.763984 2 1 ack 40 ------- 1 2.0 0.0 22 63
+ 0.763984 1 0 ack 40 ------- 1 2.0 0.0 22 63
- 0.763984 1 0 ack 40 ------- 1 2.0 0.0 22 63
r 0.765696 1 0 ack 40 ------- 1 2.0 0.0 21 61
+ 0.765696 0 1 tcp 1040 ------- 1 0.0 2.0 41 64
- 0.765696 0 1 tcp 1040 ------- 1 0.0 2.0 41 64
r 0.766984 1 2 tcp 1040 ------- 1 0.0 2.0 23 36
+ 0.766984 2 1 ack 40 ------- 1 2.0 0.0 23 65
- 0.766984 2 1 ack 40 ------- 1 2.0 0.0 23 65
r 0.768208 0 1 tcp 1040 ------- 1 0.0 2.0 40 62
+ 0.768208 1 2 tcp 1040 ------- 1 0.0 2.0 40 62
- 0.770304 1 2 tcp 1040 ------- 1 0.0 2.0 25 39
r 0.772304 2 1 ack 40 ------- 1 2.0 0.0 23 65
+ 0.772304 1 0 ack 40 ------- 1 2.0 0.0 23 65
- 0.772304 1 0 ack 40 ------- 1 2.0 0.0 23 65
r 0.774016 1 0 ack 40 ------- 1 2.0 0.0 22 63
+ 0.774016 0 1 tcp 1040 ------- 1 0.0 2.0 42 66
- 0.774016 0 1 tcp 1040 ------- 1 0.0 2.0 42 66
r 0.775304 1 2 tcp 1040 ------- 1 0.0 2.0 24 37
+ 0.775304 2 1 ack 40 ------- 1 2.0 0.0 24 67
- 0.775304 2 1 ack 40 ------- 1 2.0 0.0 24 67
r 0.776528 0 1 tcp 1040 ------- 1 0.0 2.0 41 64
+ 0.776528 1 2 tcp 1040 ------- 1 0.0 2.0 41 64
- 0.778624 1 2 tcp 1040 ------- 1 0.0 2.0 27 42
r 0.780624 2 1 ack 40 ------- 1 2.0 0.0 24 67
+ 0.780624 1 0 ack 40 ------- 1 2.0 0.0 24 67
- 0.780624 1 0 ack 40 ------- 1 2.0 0.0 24 67
r 0.782336 1 0 ack 40 ------- 1 2.0 0.0 23 65
+ 0.782336 0 1 tcp 1040 ------- 1 0.0 2.0 43 68
- 0.782336 0 1 tcp 1040 ------- 1 0.0 2.0 43 68
r 0.783624 1 2 tcp 1040 ------- 1 0.0 2.0 25 39
+ 0.783624 2 1 ack 40 ------- 1 2.0 0.0 25 69
- 0.783624 2 1 ack 40 ------- 1 2.0 0.0 25 69
r 0.784848 0 1 tcp 1040 ------- 1 0.0 2.0 42 66
+ 0.784848 1 2 tcp 1040 ------- 1 0.0 2.0 42 66
- 0.786944 1 2 tcp 1040 ------- 1 0.0 2.0 29 45
r 0.788944 2 1 ack 40 ------- 1 2.0 0.0 25 69
+ 0.788944 1 0 ack 40 ------- 1 2.0 0.0 25 69
- 0.788944 1 0 ack 40 ------- 1 2.0 0.0 25 69
r 0.790656 1 0 ack 40 ------- 1 2.0 0.0 24 67
+ 0.790656 0 1 tcp 1040 ------- 1 0.0 2.0 44 70
- 0.790656 0 1 tcp 1040 ------- 1 0.0 2.0 44 70
r 0.791944 1 2 tcp 1040 ------- 1 0.0 2.0 27 42
+ 0.791944 2 1 ack 40 ------- 1 2.0 0.0 25 71
- 0.791944 2 1 ack 40 ------- 1 2.0 0.0 25 71
r 0.793168 0 1 tcp 1040 ------- 1 0.0 2.0 43 68
+ 0.793168 1 2 tcp 1040 ------- 1 0.0 2.0 43 68
- 0.795264 1 2 tcp 1040 ------- 1 0.0 2.0 31 48
r 0.797264 2 1 ack 40 ------- 1 2.0 0.0 25 71
+ 0.797264 1 0 ack 40 ------- 1 2.0 0.0 25 71
- 0.797264 1 0 ack 40 ------- 1 2.0 0.0 25 71
r 0.798976 1 0 ack 40 ------- 1 2.0 0.0 25 69
+ 0.798976 0 1 tcp 1040 ------- 1 0.0 2.0 45 72
- 0.798976 0 1 tcp 1040 ------- 1 0.0 2.0 45 72
r 0.800264 1 2 tcp 1040 ------- 1 0.0 2.0 29 45
+ 0.800264 2 1 ack 40 ------- 1 2.0 0.0 25 73
- 0.800264 2 1 ack 40 ------- 1 2.0 0.0 25 73
r 0.801488 0 1 tcp 1040 ------- 1 0.0 2.0 44 70
+ 0.801488 1 2 tcp 1040 ------- 1 0.0 2.0 44 70
- 0.803584 1 2 tcp 1040 ------- 1 0.0 2.0 33 51
r 0.805584 2 1 ack 40 ------- 1 2.0 0.0 25 73
+ 0.805584 1 0 ack 40 ------- 1 2.0 0.0 25 73
- 0.805584 1 0 ack 40 ------- 1 2.0 0.0 25 73
r 0.807296 1 0 ack 40 ------- 1 2.0 0.0 25 71
r 0.808584 1 2 tcp 1040 ------- 1 0.0 2.0 31 48
+ 0.808584 2 1 ack 40 ------- 1 2.0 0.0 25 74
- 0.808584 2 1 ack 40 ------- 1 2.0 0.0 25 74
r 0.809808 0 1 tcp 1040 ------- 1 0.0 2.0 45 72
+ 0.809808 1 2 tcp 1040 ------- 1 0.0 2.0 45 72
- 0.811904 1 2 tcp 1040 ------- 1 0.0 2.0 35 54
r 0.813904 2 1 ack 40 ------- 1 2.0 0.0 25 74
+ 0.813904 1 0 ack 40 ------- 1 2.0 0.0 25 74
- 0.813904 1 0 ack 40 ------- 1 2.0 0.0 25 74
r 0.815616 1 0 ack 40 ------- 1 2.0 0.0 25 73
r 0.816904 1 2 tcp 1040 ------- 1 0.0 2.0 33 51
+ 0.816904 2 1 ack 40 ------- 1 2.0 0.0 25 75
- 0.816904 2 1 ack 40 ------- 1 2.0 0.0 25 75
- 0.820224 1 2 tcp 1040 ------- 1 0.0 2.0 37 57
r 0.822224 2 1 ack 40 ------- 1 2.0 0.0 25 75
+ 0.822224 1 0 ack 40 ------- 1 2.0 0.0 25 75
- 0.822224 1 0 ack 40 ------- 1 2.0 0.0 25 75
r 0.823936 1 0 ack 40 ------- 1 2.0 0.0 25 74
+ 0.823936 0 1 tcp 1040 ---A--- 1 0.0 2.0 26 76
- 0.823936 0 1 tcp 1040 ---A--- 1 0.0 2.0 26 76
r 0.825224 1 2 tcp 1040 ------- 1 0.0 2.0 35 54
+ 0.825224 2 1 ack 40 ------- 1 2.0 0.0 25 77
- 0.825224 2 1 ack 40 ------- 1 2.0 0.0 25 77
- 0.828544 1 2 tcp 1040 ------- 1 0.0 2.0 39 60
r 0.830544 2 1 ack 40 ------- 1 2.0 0.0 25 77
+ 0.830544 1 0 ack 40 ------- 1 2.0 0.0 25 77
- 0.830544 1 0 ack 40 ------- 1 2.0 0.0 25 77
r 0.832256 1 0 ack 40 ------- 1 2.0 0.0 25 75
r 0.833544 1 2 tcp 1040 ------- 1 0.0 2.0 37 57
+ 0.833544 2 1 ack 40 ------- 1 2.0 0.0 25 78
- 0.833544 2 1 ack 40 ------- 1 2.0 0.0 25 78
r 0.834768 0 1 tcp 1040 ---A--- 1 0.0 2.0 26 76
+ 0.834768 1 2 tcp 1040 ---A--- 1 0.0 2.0 26 76
- 0.836864 1 2 tcp 1040 ------- 1 0.0 2.0 40 62
r 0.838864 2 1 ack 40 ------- 1 2.0 0.0 25 78
+ 0.838864 1 0 ack 40 ------- 1 2.0 0.0 25 78
- 0.838864 1 0 ack 40 ------- 1 2.0 0.0 25 78
r 0.840576 1 0 ack 40 ------- 1 2.0 0.0 25 77
r 0.841864 1 2 tcp 1040 ------- 1 0.0 2.0 39 60
+ 0.841864 2 1 ack 40 ------- 1 2.0 0.0 25 79
- 0.841864 2 1 ack 40 ------- 1 2.0 0.0 25 79
- 0.845184 1 2 tcp 1040 ------- 1 0.0 2.0 41 64
r 0.847184 2 1 ack 40 ------- 1 2.0 0.0 25 79
+ 0.847184 1 0 ack 40 ------- 1 2.0 0.0 25 79
- 0.847184 1 0 ack 40 ------- 1 2.0 0.0 25 79
r 0.848896 1 0 ack 40 ------- 1 2.0 0.0 25 78
r 0.850184 1 2 tcp 1040 ------- 1 0.0 2.0 40 62
+ 0.850184 2 1 ack 40 ------- 1 2.0 0.0 25 80
- 0.850184 2 1 ack 40 ------- 1 2.0 0.0 25 80
- 0.853504 1 2 tcp 1040 ------- 1 0.0 2.0 42 66
r 0.855504 2 1 ack 40 ------- 1 2.0 0.0 25 80
+ 0.855504 1 0 ack 40 ------- 1 2.0 0.0 25 80
- 0.855504 1 0 ack 40 ------- 1 2.0 0.0 25 80
r 0.857216 1 0 ack 40 ------- 1 2.0 0.0 25 79
r 0.858504 1 2 tcp 1040 ------- 1 0.0 2.0 41 64
+ 0.858504 2 1 ack 40 ------- 1 2.0 0.0 25 81
- 0.858504 2 1 ack 40 ------- 1 2.0 0.0 25 81
- 0.861824 1 2 tcp 1040 ------- 1 0.0 2.0 43 68
r 0.863824 2 1 ack 40 ------- 1 2.0 0.0 25 81
+ 0.863824 1 0 ack 40 ------- 1 2.0 0.0 25 81
- 0.863824 1 0 ack 40 ------- 1 2.0 0.0 25 81
r 0.865536 1 0 ack 40 ------- 1 2.0 0.0 25 80
r 0.866824 1 2 tcp 1040 ------- 1 0.0 2.0 42 66
+ 0.866824 2 1 ack 40 ------- 1 2.0 0.0 25 82
- 0.866824 2 1 ack 40 ------- 1 2.0 0.0 25 82
- 0.870144 1 2 tcp 1040 ------- 1 0.0 2.0 44 70
r 0.872144 2 1 ack 40 ------- 1 2.0 0.0 25 82
+ 0.872144 1 0 ack 40 ------- 1 2.0 0.0 25 82
- 0.872144 1 0 ack 40 ------- 1 2.0 0.0 25 82
r 0.873856 1 0 ack 40 ------- 1 2.0 0.0 25 81
r 0.875144 1 2 tcp 1040 ------- 1 0.0 2.0 43 68
+ 0.875144 2 1 ack 40 ------- 1 2.0 0.0 25 83
- 0.875144 2 1 ack 40 ------- 1 2.0 0.0 25 83
- 0.878464 1 2 tcp 1040 ------- 1 0.0 2.0 45 72
r 0.880464 2 1 ack 40 ------- 1 2.0 0.0 25 83
+ 0.880464 1 0 ack 40 ------- 1 2.0 0.0 25 83
- 0.880464 1 0 ack 40 ------- 1 2.0 0.0 25 83
r 0.882176 1 0 ack 40 ------- 1 2.0 0.0 25 82
r 0.883464 1 2 tcp 1040 ------- 1 0.0 2.0 44 70
+ 0.883464 2 1 ack 40 ------- 1 2.0 0.0 25 84
- 0.883464 2 1 ack 40 ------- 1 2.0 0.0 25 84
- 0.886784 1 2 tcp 1040 ---A--- 1 0.0 2.0 26 76
r 0.888784 2 1 ack 40 ------- 1 2.0 0.0 25 84
+ 0.888784 1 0 ack 40 ------- 1 2.0 0.0 25 84
- 0.888784 1 0 ack 40 ------- 1 2.0 0.0 25 84
r 0.890496 1 0 ack 40 ------- 1 2.0 0.0 25 83
r 0.891784 1 2 tcp 1040 ------- 1 0.0 2.0 45 72
+ 0.891784 2 1 ack 40 ------- 1 2.0 0.0 25 85
- 0.891784 2 1 ack 40 ------- 1 2.0 0.0 25 85
r 0.897104 2 1 ack 40 ------- 1 2.0 0.0 25 85
+ 0.897104 1 0 ack 40 ------- 1 2.0 0.0 25 85
- 0.897104 1 0 ack 40 ------- 1 2.0 0.0 25 85
r 0.898816 1 0 ack 40 ------- 1 2.0 0.0 25 84
r 0.900104 1 2 tcp 1040 ---A--- 1 0.0 2.0 26 76
+ 0.900104 2 1 ack 40 ------- 1 2.0 0.0 27 86
- 0.900104 2 1 ack 40 ------- 1 2.0 0.0 27 86
r 0.905424 2 1 ack 40 ------- 1 2.0 0.0 27 86
+ 0.905424 1 0 ack 40 ------- 1 2.0 0.0 27 86
- 0.905424 1 0 ack 40 ------- 1 2.0 0.0 27 86
r 0.907136 1 0 ack 40 ------- 1 2.0 0.0 25 85
r 0.915456 1 0 ack 40 ------- 1 2.0 0.0 27 86
+ 0.915456 0 1 tcp 1040 ------- 1 0.0 2.0 28 87
- 0.915456 0 1 tcp 1040 ------- 1 0.0 2.0 28 87
+ 0.915456 0 1 tcp 1040 ------- 1 0.0 2.0 29 88
- 0.916288 0 1 tcp 1040 ------- 1 0.0 2.0 29 88
r 0.926288 0 1 tcp 1040 ------- 1 0.0 2.0 28 87
+ 0.926288 1 2 tcp 1040 ------- 1 0.0 2.0 28 87
- 0.926288 1 2 tcp 1040 ------- 1 0.0 2.0 28 87
r 0.92712 0 1 tcp 1040 ------- 1 0.0 2.0 29 88
+ 0.92712 1 2 tcp 1040 ------- 1 0.0 2.0 29 88
- 0.934608 1 2 tcp 1040 ------- 1 0.0 2.0 29 88
r 0.939608 1 2 tcp 1040 ------- 1 0.0 2.0 28 87
+ 0.939608 2 1 ack 40 ------- 1 2.0 0.0 29 89
- 0.939608 2 1 ack 40 ------- 1 2.0 0.0 29 89
r 0.944928 2 1 ack 40 ------- 1 2.0 0.0 29 89
+ 0.944928 1 0 ack 40 ------- 1 2.0 0.0 29 89
- 0.944928 1 0 ack 40 ------- 1 2.0 0.0 29 89
r 0.947928 1 2 tcp 1040 ------- 1 0.0 2.0 29 88
+ 0.947928 2 1 ack 40 ------- 1 2.0 0.0 29 90
- 0.947928 2 1 ack 40 ------- 1 2.0 0.0 29 90
r 0.953248 2 1 ack 40 ------- 1 2.0 0.0 29 90
+ 0.953248 1 0 ack 40 ------- 1 2.0 0.0 29 90
- 0.953248 1 0 ack 40 ------- 1 2.0 0.0 29 90
r 0.95496 1 0 ack 40 ------- 1 2.0 0.0 29 89
+ 0.95496 0 1 tcp 1040 ------- 1 0.0 2.0 30 91
- 0.95496 0 1 tcp 1040 ------- 1 0.0 2.0 30 91
+ 0.95496 0 1 tcp 1040 ------- 1 0.0 2.0 31 92
+ 0.95496 0 1 tcp 1040 ------- 1 0.0 2.0 32 93
- 0.955792 0 1 tcp 1040 ------- 1 0.0 2.0 31 92
- 0.956624 0 1 tcp 1040 ------- 1 0.0 2.0 32 93
r 0.96328 1 0 ack 40 ------- 1 2.0 0.0 29 90
+ 0.96328 0 1 tcp 1040 ------- 1 0.0 2.0 33 94
- 0.96328 0 1 tcp 1040 ------- 1 0.0 2.0 33 94
r 0.965792 0 1 tcp 1040 ------- 1 0.0 2.0 30 91
+ 0.965792 1 2 tcp 1040 ------- 1 0.0 2.0 30 91
- 0.965792 1 2 tcp 1040 ------- 1 0.0 2.0 30 91
r 0.966624 0 1 tcp 1040 ------- 1 0.0 2.0 31 92
+ 0.966624 1 2 tcp 1040 ------- 1 0.0 2.0 31 92
r 0.967456 0 1 tcp 1040 ------- 1 0.0 2.0 32 93
+ 0.967456 1 2 tcp 1040 ------- 1 0.0 2.0 32 93
r 0.974112 0 1 tcp 1040 ------- 1 0.0 2.0 33 94
+ 0.974112 1 2 tcp 1040 ------- 1 0.0 2.0 33 94
- 0.974112 1 2 tcp 1040 ------- 1 0.0 2.0 31 92
r 0.979112 1 2 tcp 1040 ------- 1 0.0 2.0 30 91
+ 0.979112 2 1 ack 40 ------- 1 2.0 0.0 31 95
- 0.979112 2 1 ack 40 ------- 1 2.0 0.0 31 95
- 0.982432 1 2 tcp 1040 ------- 1 0.0 2.0 32 93
r 0.984432 2 1 ack 40 ------- 1 2.0 0.0 31 95
+ 0.984432 1 0 ack 40 ------- 1 2.0 0.0 31 95
- 0.984432 1 0 ack 40 ------- 1 2.0 0.0 31 95
r 0.987432 1 2 tcp 1040 ------- 1 0.0 2.0 31 92
+ 0.987432 2 1 ack 40 ------- 1 2.0 0.0 31 96
- 0.987432 2 1 ack 40 ------- 1 2.0 0.0 31 96
- 0.990752 1 2 tcp 1040 ------- 1 0.0 2.0 33 94
r 0.992752 2 1 ack 40 ------- 1 2.0 0.0 31 96
+ 0.992752 1 0 ack 40 ------- 1 2.0 0.0 31 96
- 0.992752 1 0 ack 40 ------- 1 2.0 0.0 31 96
r 0.994464 1 0 ack 40 ------- 1 2.0 0.0 31 95
+ 0.994464 0 1 tcp 1040 ------- 1 0.0 2.0 34 97
- 0.994464 0 1 tcp 1040 ------- 1 0.0 2.0 34 97
+ 0.994464 0 1 tcp 1040 ------- 1 0.0 2.0 35 98
- 0.995296 0 1 tcp 1040 ------- 1 0.0 2.0 35 98
r 0.995752 1 2 tcp 1040 ------- 1 0.0 2.0 32 93
+ 0.995752 2 1 ack 40 ------- 1 2.0 0.0 33 99
- 0.995752 2 1 ack 40 ------- 1 2.0 0.0 33 99
r 1.001072 2 1 ack 40 ------- 1 2.0 0.0 33 99
+ 1.001072 1 0 ack 40 ------- 1 2.0 0.0 33 99
- 1.001072 1 0 ack 40 ------- 1 2.0 0.0 33 99
r 1.002784 1 0 ack 40 ------- 1 2.0 0.0 31 96
+ 1.002784 0 1 tcp 1040 ------- 1 0.0 2.0 36 100
- 1.002784 0 1 tcp 1040 ------- 1 0.0 2.0 36 100
r 1.004072 1 2 tcp 1040 ------- 1 0.0 2.0 33 94
+ 1.004072 2 1 ack 40 ------- 1 2.0 0.0 33 101
- 1.004072 2 1 ack 40 ------- 1 2.0 0.0 33 101
r 1.005296 0 1 tcp 1040 ------- 1 0.0 2.0 34 97
+ 1.005296 1 2 tcp 1040 ------- 1 0.0 2.0 34 97
- 1.005296 1 2 tcp 1040 ------- 1 0.0 2.0 34 97
r 1.006128 0 1 tcp 1040 ------- 1 0.0 2.0 35 98
+ 1.006128 1 2 tcp 1040 ------- 1 0.0 2.0 35 98
r 1.009392 2 1 ack 40 ------- 1 2.0 0.0 33 101
+ 1.009392 1 0 ack 40 ------- 1 2.0 0.0 33 101
- 1.009392 1 0 ack 40 ------- 1 2.0 0.0 33 101
r 1.011104 1 0 ack 40 ------- 1 2.0 0.0 33 99
+ 1.011104 0 1 tcp 1040 ------- 1 0.0 2.0 37 102
- 1.011104 0 1 tcp 1040 ------- 1 0.0 2.0 37 102
+ 1.011104 0 1 tcp 1040 ------- 1 0.0 2.0 38 103
- 1.011936 0 1 tcp 1040 ------- 1 0.0 2.0 38 103
r 1.013616 0 1 tcp 1040 ------- 1 0.0 2.0 36 100
+ 1.013616 1 2 tcp 1040 ------- 1 0.0 2.0 36 100
- 1.013616 1 2 tcp 1040 ------- 1 0.0 2.0 35 98
r 1.018616 1 2 tcp 1040 ------- 1 0.0 2.0 34 97
+ 1.018616 2 1 ack 40 ------- 1 2.0 0.0 35 104
- 1.018616 2 1 ack 40 ------- 1 2.0 0.0 35 104
r 1.019424 1 0 ack 40 ------- 1 2.0 0.0 33 101
+ 1.019424 0 1 tcp 1040 ------- 1 0.0 2.0 39 105
- 1.019424 0 1 tcp 1040 ------- 1 0.0 2.0 39 105
r 1.021936 0 1 tcp 1040 ------- 1 0.0 2.0 37 102
+ 1.021936 1 2 tcp 1040 ------- 1 0.0 2.0 37 102
- 1.021936 1 2 tcp 1040 ------- 1 0.0 2.0 36 100
r 1.022768 0 1 tcp 1040 ------- 1 0.0 2.0 38 103
+ 1.022768 1 2 tcp 1040 ------- 1 0.0 2.0 38 103
r 1.023936 2 1 ack 40 ------- 1 2.0 0.0 35 104
+ 1.023936 1 0 ack 40 ------- 1 2.0 0.0 35 104
- 1.023936 1 0 ack 40 ------- 1 2.0 0.0 35 104
r 1.026936 1 2 tcp 1040 ------- 1 0.0 2.0 35 98
+ 1.026936 2 1 ack 40 ------- 1 2.0 0.0 35 106
- 1.026936 2 1 ack 40 ------- 1 2.0 0.0 35 106
r 1.030256 0 1 tcp 1040 ------- 1 0.0 2.0 39 105
+ 1.030256 1 2 tcp 1040 ------- 1 0.0 2.0 39 105
- 1.030256 1 2 tcp 1040 ------- 1 0.0 2.0 37 102
r 1.032256 2 1 ack 40 ------- 1 2.0 0.0 35 106
+ 1.032256 1 0 ack 40 ------- 1 2.0 0.0 35 106
- 1.032256 1 0 ack 40 ------- 1 2.0 0.0 35 106
r 1.033968 1 0 ack 40 ------- 1 2.0 0.0 35 104
+ 1.033968 0 1 tcp 1040 ------- 1 0.0 2.0 40 107
- 1.033968 0 1 tcp 1040 ------- 1 0.0 2.0 40 107
+ 1.033968 0 1 tcp 1040 ------- 1 0.0 2.0 41 108
- 1.0348 0 1 tcp 1040 ------- 1 0.0 2.0 41 108
r 1.035256 1 2 tcp 1040 ------- 1 0.0 2.0 36 100
+ 1.035256 2 1 ack 40 ------- 1 2.0 0.0 37 109
- 1.035256 2 1 ack 40 ------- 1 2.0 0.0 37 109
- 1.038576 1 2 tcp 1040 ------- 1 0.0 2.0 38 103
r 1.040576 2 1 ack 40 ------- 1 2.0 0.0 37 109
+ 1.040576 1 0 ack 40 ------- 1 2.0 0.0 37 109
- 1.040576 1 0 ack 40 ------- 1 2.0 0.0 37 109
r 1.042288 1 0 ack 40 ------- 1 2.0 0.0 35 106
+ 1.042288 0 1 tcp 1040 ------- 1 0.0 2.0 42 110
- 1.042288 0 1 tcp 1040 ------- 1 0.0 2.0 42 110