+ 0.5 0 1 cbr 150 ------- 0 0.0 2.0 0 0
- 0.5 0 1 cbr 150 ------- 0 0.0 2.0 0 0
+ 0.51 0 1 cbr 150 ------- 0 0.0 2.0 1 1
- 0.51 0 1 cbr 150 ------- 0 0.0 2.0 1 1
+ 0.52 0 1 cbr 150 ------- 0 0.0 2.0 2 2
- 0.52 0 1 cbr 150 ------- 0 0.0 2.0 2 2
+ 0.53 0 1 cbr 150 ------- 0 0.0 2.0 3 3
- 0.53 0 1 cbr 150 ------- 0 0.0 2.0 3 3
+ 0.54 0 1 cbr 150 ------- 0 0.0 2.0 4 4
- 0.54 0 1 cbr 150 ------- 0 0.0 2.0 4 4
+ 0.55 0 1 cbr 150 ------- 0 0.0 2.0 5 5
- 0.55 0 1 cbr 150 ------- 0 0.0 2.0 5 5
r 0.5512 0 1 cbr 150 ------- 0 0.0 2.0 0 0
+ 0.5512 1 2 cbr 150 ------- 0 0.0 2.0 0 0
- 0.5512 1 2 cbr 150 ------- 0 0.0 2.0 0 0
+ 0.56 0 1 cbr 150 ------- 0 0.0 2.0 6 6
- 0.56 0 1 cbr 150 ------- 0 0.0 2.0 6 6
r 0.5612 0 1 cbr 150 ------- 0 0.0 2.0 1 1
+ 0.5612 1 2 cbr 150 ------- 0 0.0 2.0 1 1
- 0.5632 1 2 cbr 150 ------- 0 0.0 2.0 1 1
r 0.5682 1 2 cbr 150 ------- 0 0.0 2.0 0 0
+ 0.57 0 1 cbr 150 ------- 0 0.0 2.0 7 7
- 0.57 0 1 cbr 150 ------- 0 0.0 2.0 7 7
r 0.5712 0 1 cbr 150 ------- 0 0.0 2.0 2 2
+ 0.5712 1 2 cbr 150 ------- 0 0.0 2.0 2 2
- 0.5752 1 2 cbr 150 ------- 0 0.0 2.0 2 2
+ 0.58 0 1 cbr 150 ------- 0 0.0 2.0 8 8
- 0.58 0 1 cbr 150 ------- 0 0.0 2.0 8 8
r 0.5802 1 2 cbr 150 ------- 0 0.0 2.0 1 1
r 0.5812 0 1 cbr 150 ------- 0 0.0 2.0 3 3
+ 0.5812 1 2 cbr 150 ------- 0 0.0 2.0 3 3
- 0.5872 1 2 cbr 150 ------- 0 0.0 2.0 3 3
+ 0.59 0 1 cbr 150 ------- 0 0.0 2.0 9 9
- 0.59 0 1 cbr 150 ------- 0 0.0 2.0 9 9
r 0.5912 0 1 cbr 150 ------- 0 0.0 2.0 4 4
+ 0.5912 1 2 cbr 150 ------- 0 0.0 2.0 4 4
r 0.5922 1 2 cbr 150 ------- 0 0.0 2.0 2 2
- 0.5992 1 2 cbr 150 ------- 0 0.0 2.0 4 4
+ 0.6 0 1 cbr 150 ------- 0 0.0 2.0 10 10
- 0.6 0 1 cbr 150 ------- 0 0.0 2.0 10 10
r 0.6012 0 1 cbr 150 ------- 0 0.0 2.0 5 5
+ 0.6012 1 2 cbr 150 ------- 0 0.0 2.0 5 5
r 0.6042 1 2 cbr 150 ------- 0 0.0 2.0 3 3
+ 0.61 0 1 cbr 150 ------- 0 0.0 2.0 11 11
- 0.61 0 1 cbr 150 ------- 0 0.0 2.0 11 11
r 0.6112 0 1 cbr 150 ------- 0 0.0 2.0 6 6
+ 0.6112 1 2 cbr 150 ------- 0 0.0 2.0 6 6
- 0.6112 1 2 cbr 150 ------- 0 0.0 2.0 5 5
r 0.6162 1 2 cbr 150 ------- 0 0.0 2.0 4 4
+ 0.62 0 1 cbr 150 ------- 0 0.0 2.0 12 12
- 0.62 0 1 cbr 150 ------- 0 0.0 2.0 12 12
r 0.6212 0 1 cbr 150 ------- 0 0.0 2.0 7 7
+ 0.6212 1 2 cbr 150 ------- 0 0.0 2.0 7 7
- 0.6232 1 2 cbr 150 ------- 0 0.0 2.0 6 6
r 0.6282 1 2 cbr 150 ------- 0 0.0 2.0 5 5
+ 0.63 0 1 cbr 150 ------- 0 0.0 2.0 13 13
- 0.63 0 1 cbr 150 ------- 0 0.0 2.0 13 13
r 0.6312 0 1 cbr 150 ------- 0 0.0 2.0 8 8
+ 0.6312 1 2 cbr 150 ------- 0 0.0 2.0 8 8
- 0.6352 1 2 cbr 150 ------- 0 0.0 2.0 7 7
+ 0.64 0 1 cbr 150 ------- 0 0.0 2.0 14 14
- 0.64 0 1 cbr 150 ------- 0 0.0 2.0 14 14
r 0.6402 1 2 cbr 150 ------- 0 0.0 2.0 6 6
r 0.6412 0 1 cbr 150 ------- 0 0.0 2.0 9 9
+ 0.6412 1 2 cbr 150 ------- 0 0.0 2.0 9 9
- 0.6472 1 2 cbr 150 ------- 0 0.0 2.0 8 8
+ 0.65 0 1 cbr 150 ------- 0 0.0 2.0 15 15
- 0.65 0 1 cbr 150 ------- 0 0.0 2.0 15 15
r 0.6512 0 1 cbr 150 ------- 0 0.0 2.0 10 10
+ 0.6512 1 2 cbr 150 ------- 0 0.0 2.0 10 10
r 0.6522 1 2 cbr 150 ------- 0 0.0 2.0 7 7
- 0.6592 1 2 cbr 150 ------- 0 0.0 2.0 9 9
+ 0.66 0 1 cbr 150 ------- 0 0.0 2.0 16 16
- 0.66 0 1 cbr 150 ------- 0 0.0 2.0 16 16
r 0.6612 0 1 cbr 150 ------- 0 0.0 2.0 11 11
+ 0.6612 1 2 cbr 150 ------- 0 0.0 2.0 11 11
r 0.6642 1 2 cbr 150 ------- 0 0.0 2.0 8 8
+ 0.67 0 1 cbr 150 ------- 0 0.0 2.0 17 17
- 0.67 0 1 cbr 150 ------- 0 0.0 2.0 17 17
r 0.6712 0 1 cbr 150 ------- 0 0.0 2.0 12 12
+ 0.6712 1 2 cbr 150 ------- 0 0.0 2.0 12 12
- 0.6712 1 2 cbr 150 ------- 0 0.0 2.0 10 10
r 0.6762 1 2 cbr 150 ------- 0 0.0 2.0 9 9
+ 0.68 0 1 cbr 150 ------- 0 0.0 2.0 18 18
- 0.68 0 1 cbr 150 ------- 0 0.0 2.0 18 18
r 0.6812 0 1 cbr 150 ------- 0 0.0 2.0 13 13
+ 0.6812 1 2 cbr 150 ------- 0 0.0 2.0 13 13
- 0.6832 1 2 cbr 150 ------- 0 0.0 2.0 11 11
r 0.6882 1 2 cbr 150 ------- 0 0.0 2.0 10 10
+ 0.69 0 1 cbr 150 ------- 0 0.0 2.0 19 19
- 0.69 0 1 cbr 150 ------- 0 0.0 2.0 19 19
r 0.6912 0 1 cbr 150 ------- 0 0.0 2.0 14 14
+ 0.6912 1 2 cbr 150 ------- 0 0.0 2.0 14 14
- 0.6952 1 2 cbr 150 ------- 0 0.0 2.0 12 12
+ 0.7 0 1 cbr 150 ------- 0 0.0 2.0 20 20
- 0.7 0 1 cbr 150 ------- 0 0.0 2.0 20 20
r 0.7002 1 2 cbr 150 ------- 0 0.0 2.0 11 11
r 0.7012 0 1 cbr 150 ------- 0 0.0 2.0 15 15
+ 0.7012 1 2 cbr 150 ------- 0 0.0 2.0 15 15
- 0.7072 1 2 cbr 150 ------- 0 0.0 2.0 13 13
+ 0.71 0 1 cbr 150 ------- 0 0.0 2.0 21 21
- 0.71 0 1 cbr 150 ------- 0 0.0 2.0 21 21
r 0.7112 0 1 cbr 150 ------- 0 0.0 2.0 16 16
+ 0.7112 1 2 cbr 150 ------- 0 0.0 2.0 16 16
r 0.7122 1 2 cbr 150 ------- 0 0.0 2.0 12 12
- 0.7192 1 2 cbr 150 ------- 0 0.0 2.0 14 14
+ 0.72 0 1 cbr 150 ------- 0 0.0 2.0 22 22
- 0.72 0 1 cbr 150 ------- 0 0.0 2.0 22 22
r 0.7212 0 1 cbr 150 ------- 0 0.0 2.0 17 17
+ 0.7212 1 2 cbr 150 ------- 0 0.0 2.0 17 17
r 0.7242 1 2 cbr 150 ------- 0 0.0 2.0 13 13
+ 0.73 0 1 cbr 150 ------- 0 0.0 2.0 23 23
- 0.73 0 1 cbr 150 ------- 0 0.0 2.0 23 23
r 0.7312 0 1 cbr 150 ------- 0 0.0 2.0 18 18
+ 0.7312 1 2 cbr 150 ------- 0 0.0 2.0 18 18
- 0.7312 1 2 cbr 150 ------- 0 0.0 2.0 15 15
r 0.7362 1 2 cbr 150 ------- 0 0.0 2.0 14 14
+ 0.74 0 1 cbr 150 ------- 0 0.0 2.0 24 24
- 0.74 0 1 cbr 150 ------- 0 0.0 2.0 24 24
r 0.7412 0 1 cbr 150 ------- 0 0.0 2.0 19 19
+ 0.7412 1 2 cbr 150 ------- 0 0.0 2.0 19 19
- 0.7432 1 2 cbr 150 ------- 0 0.0 2.0 16 16
r 0.7482 1 2 cbr 150 ------- 0 0.0 2.0 15 15
+ 0.75 0 1 cbr 150 ------- 0 0.0 2.0 25 25
- 0.75 0 1 cbr 150 ------- 0 0.0 2.0 25 25
r 0.7512 0 1 cbr 150 ------- 0 0.0 2.0 20 20
+ 0.7512 1 2 cbr 150 ------- 0 0.0 2.0 20 20
- 0.7552 1 2 cbr 150 ------- 0 0.0 2.0 17 17
+ 0.76 0 1 cbr 150 ------- 0 0.0 2.0 26 26
- 0.76 0 1 cbr 150 ------- 0 0.0 2.0 26 26
r 0.7602 1 2 cbr 150 ------- 0 0.0 2.0 16 16
r 0.7612 0 1 cbr 150 ------- 0 0.0 2.0 21 21
+ 0.7612 1 2 cbr 150 ------- 0 0.0 2.0 21 21
- 0.7672 1 2 cbr 150 ------- 0 0.0 2.0 18 18
+ 0.77 0 1 cbr 150 ------- 0 0.0 2.0 27 27
- 0.77 0 1 cbr 150 ------- 0 0.0 2.0 27 27
r 0.7712 0 1 cbr 150 ------- 0 0.0 2.0 22 22
+ 0.7712 1 2 cbr 150 ------- 0 0.0 2.0 22 22
r 0.7722 1 2 cbr 150 ------- 0 0.0 2.0 17 17
- 0.7792 1 2 cbr 150 ------- 0 0.0 2.0 19 19
+ 0.78 0 1 cbr 150 ------- 0 0.0 2.0 28 28
- 0.78 0 1 cbr 150 ------- 0 0.0 2.0 28 28
r 0.7812 0 1 cbr 150 ------- 0 0.0 2.0 23 23
+ 0.7812 1 2 cbr 150 ------- 0 0.0 2.0 23 23
r 0.7842 1 2 cbr 150 ------- 0 0.0 2.0 18 18
+ 0.79 0 1 cbr 150 ------- 0 0.0 2.0 29 29
- 0.79 0 1 cbr 150 ------- 0 0.0 2.0 29 29
r 0.7912 0 1 cbr 150 ------- 0 0.0 2.0 24 24
+ 0.7912 1 2 cbr 150 ------- 0 0.0 2.0 24 24
- 0.7912 1 2 cbr 150 ------- 0 0.0 2.0 20 20
r 0.7962 1 2 cbr 150 ------- 0 0.0 2.0 19 19
+ 0.8 0 1 cbr 150 ------- 0 0.0 2.0 30 30
- 0.8 0 1 cbr 150 ------- 0 0.0 2.0 30 30
r 0.8012 0 1 cbr 150 ------- 0 0.0 2.0 25 25
+ 0.8012 1 2 cbr 150 ------- 0 0.0 2.0 25 25
- 0.8032 1 2 cbr 150 ------- 0 0.0 2.0 21 21
r 0.8082 1 2 cbr 150 ------- 0 0.0 2.0 20 20
+ 0.81 0 1 cbr 150 ------- 0 0.0 2.0 31 31
- 0.81 0 1 cbr 150 ------- 0 0.0 2.0 31 31
r 0.8112 0 1 cbr 150 ------- 0 0.0 2.0 26 26
+ 0.8112 1 2 cbr 150 ------- 0 0.0 2.0 26 26
- 0.8152 1 2 cbr 150 ------- 0 0.0 2.0 22 22
+ 0.82 0 1 cbr 150 ------- 0 0.0 2.0 32 32
- 0.82 0 1 cbr 150 ------- 0 0.0 2.0 32 32
r 0.8202 1 2 cbr 150 ------- 0 0.0 2.0 21 21
r 0.8212 0 1 cbr 150 ------- 0 0.0 2.0 27 27
+ 0.8212 1 2 cbr 150 ------- 0 0.0 2.0 27 27
- 0.8272 1 2 cbr 150 ------- 0 0.0 2.0 23 23
+ 0.83 0 1 cbr 150 ------- 0 0.0 2.0 33 33
- 0.83 0 1 cbr 150 ------- 0 0.0 2.0 33 33
r 0.8312 0 1 cbr 150 ------- 0 0.0 2.0 28 28
+ 0.8312 1 2 cbr 150 ------- 0 0.0 2.0 28 28
r 0.8322 1 2 cbr 150 ------- 0 0.0 2.0 22 22
- 0.8392 1 2 cbr 150 ------- 0 0.0 2.0 24 24
+ 0.84 0 1 cbr 150 ------- 0 0.0 2.0 34 34
- 0.84 0 1 cbr 150 ------- 0 0.0 2.0 34 34
r 0.8412 0 1 cbr 150 ------- 0 0.0 2.0 29 29
+ 0.8412 1 2 cbr 150 ------- 0 0.0 2.0 29 29
r 0.8442 1 2 cbr 150 ------- 0 0.0 2.0 23 23
+ 0.85 0 1 cbr 150 ------- 0 0.0 2.0 35 35
- 0.85 0 1 cbr 150 ------- 0 0.0 2.0 35 35
r 0.8512 0 1 cbr 150 ------- 0 0.0 2.0 30 30
+ 0.8512 1 2 cbr 150 ------- 0 0.0 2.0 30 30
- 0.8512 1 2 cbr 150 ------- 0 0.0 2.0 25 25
r 0.8562 1 2 cbr 150 ------- 0 0.0 2.0 24 24
+ 0.86 0 1 cbr 150 ------- 0 0.0 2.0 36 36
- 0.86 0 1 cbr 150 ------- 0 0.0 2.0 36 36
r 0.8612 0 1 cbr 150 ------- 0 0.0 2.0 31 31
+ 0.8612 1 2 cbr 150 ------- 0 0.0 2.0 31 31
- 0.8632 1 2 cbr 150 ------- 0 0.0 2.0 26 26
r 0.8682 1 2 cbr 150 ------- 0 0.0 2.0 25 25
+ 0.87 0 1 cbr 150 ------- 0 0.0 2.0 37 37
- 0.87 0 1 cbr 150 ------- 0 0.0 2.0 37 37
r 0.8712 0 1 cbr 150 ------- 0 0.0 2.0 32 32
+ 0.8712 1 2 cbr 150 ------- 0 0.0 2.0 32 32
- 0.8752 1 2 cbr 150 ------- 0 0.0 2.0 27 27
+ 0.88 0 1 cbr 150 ------- 0 0.0 2.0 38 38
- 0.88 0 1 cbr 150 ------- 0 0.0 2.0 38 38
r 0.8802 1 2 cbr 150 ------- 0 0.0 2.0 26 26
r 0.8812 0 1 cbr 150 ------- 0 0.0 2.0 33 33
+ 0.8812 1 2 cbr 150 ------- 0 0.0 2.0 33 33
- 0.8872 1 2 cbr 150 ------- 0 0.0 2.0 28 28
+ 0.89 0 1 cbr 150 ------- 0 0.0 2.0 39 39
- 0.89 0 1 cbr 150 ------- 0 0.0 2.0 39 39
r 0.8912 0 1 cbr 150 ------- 0 0.0 2.0 34 34
+ 0.8912 1 2 cbr 150 ------- 0 0.0 2.0 34 34
r 0.8922 1 2 cbr 150 ------- 0 0.0 2.0 27 27
- 0.8992 1 2 cbr 150 ------- 0 0.0 2.0 29 29
+ 0.9 0 1 cbr 150 ------- 0 0.0 2.0 40 40
- 0.9 0 1 cbr 150 ------- 0 0.0 2.0 40 40
r 0.9012 0 1 cbr 150 ------- 0 0.0 2.0 35 35
+ 0.9012 1 2 cbr 150 ------- 0 0.0 2.0 35 35
r 0.9042 1 2 cbr 150 ------- 0 0.0 2.0 28 28
+ 0.91 0 1 cbr 150 ------- 0 0.0 2.0 41 41
- 0.91 0 1 cbr 150 ------- 0 0.0 2.0 41 41
r 0.9112 0 1 cbr 150 ------- 0 0.0 2.0 36 36
+ 0.9112 1 2 cbr 150 ------- 0 0.0 2.0 36 36
- 0.9112 1 2 cbr 150 ------- 0 0.0 2.0 30 30
r 0.9162 1 2 cbr 150 ------- 0 0.0 2.0 29 29
+ 0.92 0 1 cbr 150 ------- 0 0.0 2.0 42 42
- 0.92 0 1 cbr 150 ------- 0 0.0 2.0 42 42
r 0.9212 0 1 cbr 150 ------- 0 0.0 2.0 37 37
+ 0.9212 1 2 cbr 150 ------- 0 0.0 2.0 37 37
- 0.9232 1 2 cbr 150 ------- 0 0.0 2.0 31 31
r 0.9282 1 2 cbr 150 ------- 0 0.0 2.0 30 30
+ 0.93 0 1 cbr 150 ------- 0 0.0 2.0 43 43
- 0.93 0 1 cbr 150 ------- 0 0.0 2.0 43 43
r 0.9312 0 1 cbr 150 ------- 0 0.0 2.0 38 38
+ 0.9312 1 2 cbr 150 ------- 0 0.0 2.0 38 38
- 0.9352 1 2 cbr 150 ------- 0 0.0 2.0 32 32
+ 0.94 0 1 cbr 150 ------- 0 0.0 2.0 44 44
- 0.94 0 1 cbr 150 ------- 0 0.0 2.0 44 44
r 0.9402 1 2 cbr 150 ------- 0 0.0 2.0 31 31
r 0.9412 0 1 cbr 150 ------- 0 0.0 2.0 39 39
+ 0.9412 1 2 cbr 150 ------- 0 0.0 2.0 39 39
- 0.9472 1 2 cbr 150 ------- 0 0.0 2.0 33 33
+ 0.95 0 1 cbr 150 ------- 0 0.0 2.0 45 45
- 0.95 0 1 cbr 150 ------- 0 0.0 2.0 45 45
r 0.9512 0 1 cbr 150 ------- 0 0.0 2.0 40 40
+ 0.9512 1 2 cbr 150 ------- 0 0.0 2.0 40 40
r 0.9522 1 2 cbr 150 ------- 0 0.0 2.0 32 32
- 0.9592 1 2 cbr 150 ------- 0 0.0 2.0 34 34
+ 0.96 0 1 cbr 150 ------- 0 0.0 2.0 46 46
- 0.96 0 1 cbr 150 ------- 0 0.0 2.0 46 46
r 0.9612 0 1 cbr 150 ------- 0 0.0 2.0 41 41
+ 0.9612 1 2 cbr 150 ------- 0 0.0 2.0 41 41
r 0.9642 1 2 cbr 150 ------- 0 0.0 2.0 33 33
+ 0.97 0 1 cbr 150 ------- 0 0.0 2.0 47 47
- 0.97 0 1 cbr 150 ------- 0 0.0 2.0 47 47
r 0.9712 0 1 cbr 150 ------- 0 0.0 2.0 42 42
+ 0.9712 1 2 cbr 150 ------- 0 0.0 2.0 42 42
- 0.9712 1 2 cbr 150 ------- 0 0.0 2.0 35 35
r 0.9762 1 2 cbr 150 ------- 0 0.0 2.0 34 34
+ 0.98 0 1 cbr 150 ------- 0 0.0 2.0 48 48
- 0.98 0 1 cbr 150 ------- 0 0.0 2.0 48 48
r 0.9812 0 1 cbr 150 ------- 0 0.0 2.0 43 43
+ 0.9812 1 2 cbr 150 ------- 0 0.0 2.0 43 43
- 0.9832 1 2 cbr 150 ------- 0 0.0 2.0 36 36
r 0.9882 1 2 cbr 150 ------- 0 0.0 2.0 35 35
+ 0.99 0 1 cbr 150 ------- 0 0.0 2.0 49 49
- 0.99 0 1 cbr 150 ------- 0 0.0 2.0 49 49
r 0.9912 0 1 cbr 150 ------- 0 0.0 2.0 44 44
+ 0.9912 1 2 cbr 150 ------- 0 0.0 2.0 44 44
- 0.9952 1 2 cbr 150 ------- 0 0.0 2.0 37 37
+ 1 0 1 cbr 150 ------- 0 0.0 2.0 50 50
- 1 0 1 cbr 150 ------- 0 0.0 2.0 50 50
r 1.0002 1 2 cbr 150 ------- 0 0.0 2.0 36 36
r 1.0012 0 1 cbr 150 ------- 0 0.0 2.0 45 45
+ 1.0012 1 2 cbr 150 ------- 0 0.0 2.0 45 45
- 1.0072 1 2 cbr 150 ------- 0 0.0 2.0 38 38
+ 1.01 0 1 cbr 150 ------- 0 0.0 2.0 51 51
- 1.01 0 1 cbr 150 ------- 0 0.0 2.0 51 51
r 1.0112 0 1 cbr 150 ------- 0 0.0 2.0 46 46
+ 1.0112 1 2 cbr 150 ------- 0 0.0 2.0 46 46
r 1.0122 1 2 cbr 150 ------- 0 0.0 2.0 37 37
- 1.0192 1 2 cbr 150 ------- 0 0.0 2.0 39 39
+ 1.02 0 1 cbr 150 ------- 0 0.0 2.0 52 52
- 1.02 0 1 cbr 150 ------- 0 0.0 2.0 52 52
r 1.0212 0 1 cbr 150 ------- 0 0.0 2.0 47 47
+ 1.0212 1 2 cbr 150 ------- 0 0.0 2.0 47 47
r 1.0242 1 2 cbr 150 ------- 0 0.0 2.0 38 38
+ 1.03 0 1 cbr 150 ------- 0 0.0 2.0 53 53
- 1.03 0 1 cbr 150 ------- 0 0.0 2.0 53 53
r 1.0312 0 1 cbr 150 ------- 0 0.0 2.0 48 48
+ 1.0312 1 2 cbr 150 ------- 0 0.0 2.0 48 48
- 1.0312 1 2 cbr 150 ------- 0 0.0 2.0 40 40
r 1.0362 1 2 cbr 150 ------- 0 0.0 2.0 39 39
+ 1.04 0 1 cbr 150 ------- 0 0.0 2.0 54 54
- 1.04 0 1 cbr 150 ------- 0 0.0 2.0 54 54
r 1.0412 0 1 cbr 150 ------- 0 0.0 2.0 49 49
+ 1.0412 1 2 cbr 150 ------- 0 0.0 2.0 49 49
- 1.0432 1 2 cbr 150 ------- 0 0.0 2.0 41 41
r 1.0482 1 2 cbr 150 ------- 0 0.0 2.0 40 40
+ 1.05 0 1 cbr 150 ------- 0 0.0 2.0 55 55
- 1.05 0 1 cbr 150 ------- 0 0.0 2.0 55 55
r 1.0512 0 1 cbr 150 ------- 0 0.0 2.0 50 50
+ 1.0512 1 2 cbr 150 ------- 0 0.0 2.0 50 50
- 1.0552 1 2 cbr 150 ------- 0 0.0 2.0 42 42
+ 1.06 0 1 cbr 150 ------- 0 0.0 2.0 56 56
- 1.06 0 1 cbr 150 ------- 0 0.0 2.0 56 56
r 1.0602 1 2 cbr 150 ------- 0 0.0 2.0 41 41
r 1.0612 0 1 cbr 150 ------- 0 0.0 2.0 51 51
+ 1.0612 1 2 cbr 150 ------- 0 0.0 2.0 51 51
- 1.0672 1 2 cbr 150 ------- 0 0.0 2.0 43 43
+ 1.07 0 1 cbr 150 ------- 0 0.0 2.0 57 57
- 1.07 0 1 cbr 150 ------- 0 0.0 2.0 57 57
r 1.0712 0 1 cbr 150 ------- 0 0.0 2.0 52 52
+ 1.0712 1 2 cbr 150 ------- 0 0.0 2.0 52 52
r 1.0722 1 2 cbr 150 ------- 0 0.0 2.0 42 42
- 1.0792 1 2 cbr 150 ------- 0 0.0 2.0 44 44
+ 1.08 0 1 cbr 150 ------- 0 0.0 2.0 58 58
- 1.08 0 1 cbr 150 ------- 0 0.0 2.0 58 58
r 1.0812 0 1 cbr 150 ------- 0 0.0 2.0 53 53
+ 1.0812 1 2 cbr 150 ------- 0 0.0 2.0 53 53
r 1.0842 1 2 cbr 150 ------- 0 0.0 2.0 43 43
+ 1.09 0 1 cbr 150 ------- 0 0.0 2.0 59 59
- 1.09 0 1 cbr 150 ------- 0 0.0 2.0 59 59
r 1.0912 0 1 cbr 150 ------- 0 0.0 2.0 54 54
+ 1.0912 1 2 cbr 150 ------- 0 0.0 2.0 54 54
d 1.0912 1 2 cbr 150 ------- 0 0.0 2.0 54 54
- 1.0912 1 2 cbr 150 ------- 0 0.0 2.0 45 45
r 1.0962 1 2 cbr 150 ------- 0 0.0 2.0 44 44
+ 1.1 0 1 cbr 150 ------- 0 0.0 2.0 60 60
- 1.1 0 1 cbr 150 ------- 0 0.0 2.0 60 60
r 1.1012 0 1 cbr 150 ------- 0 0.0 2.0 55 55
+ 1.1012 1 2 cbr 150 ------- 0 0.0 2.0 55 55
- 1.1032 1 2 cbr 150 ------- 0 0.0 2.0 46 46
r 1.1082 1 2 cbr 150 ------- 0 0.0 2.0 45 45
+ 1.11 0 1 cbr 150 ------- 0 0.0 2.0 61 61
- 1.11 0 1 cbr 150 ------- 0 0.0 2.0 61 61
r 1.1112 0 1 cbr 150 ------- 0 0.0 2.0 56 56
+ 1.1112 1 2 cbr 150 ------- 0 0.0 2.0 56 56
- 1.1152 1 2 cbr 150 ------- 0 0.0 2.0 47 47
+ 1.12 0 1 cbr 150 ------- 0 0.0 2.0 62 62
- 1.12 0 1 cbr 150 ------- 0 0.0 2.0 62 62
r 1.1202 1 2 cbr 150 ------- 0 0.0 2.0 46 46
r 1.1212 0 1 cbr 150 ------- 0 0.0 2.0 57 57
+ 1.1212 1 2 cbr 150 ------- 0 0.0 2.0 57 57
- 1.1272 1 2 cbr 150 ------- 0 0.0 2.0 48 48
+ 1.13 0 1 cbr 150 ------- 0 0.0 2.0 63 63
- 1.13 0 1 cbr 150 ------- 0 0.0 2.0 63 63
r 1.1312 0 1 cbr 150 ------- 0 0.0 2.0 58 58
+ 1.1312 1 2 cbr 150 ------- 0 0.0 2.0 58 58
r 1.1322 1 2 cbr 150 ------- 0 0.0 2.0 47 47
- 1.1392 1 2 cbr 150 ------- 0 0.0 2.0 49 49
+ 1.14 0 1 cbr 150 ------- 0 0.0 2.0 64 64
- 1.14 0 1 cbr 150 ------- 0 0.0 2.0 64 64
r 1.1412 0 1 cbr 150 ------- 0 0.0 2.0 59 59
+ 1.1412 1 2 cbr 150 ------- 0 0.0 2.0 59 59
r 1.1442 1 2 cbr 150 ------- 0 0.0 2.0 48 48
+ 1.15 0 1 cbr 150 ------- 0 0.0 2.0 65 65
- 1.15 0 1 cbr 150 ------- 0 0.0 2.0 65 65
r 1.1512 0 1 cbr 150 ------- 0 0.0 2.0 60 60
+ 1.1512 1 2 cbr 150 ------- 0 0.0 2.0 60 60
d 1.1512 1 2 cbr 150 ------- 0 0.0 2.0 60 60
- 1.1512 1 2 cbr 150 ------- 0 0.0 2.0 50 50
r 1.1562 1 2 cbr 150 ------- 0 0.0 2.0 49 49
+ 1.16 0 1 cbr 150 ------- 0 0.0 2.0 66 66
- 1.16 0 1 cbr 150 ------- 0 0.0 2.0 66 66
r 1.1612 0 1 cbr 150 ------- 0 0.0 2.0 61 61
+ 1.1612 1 2 cbr 150 ------- 0 0.0 2.0 61 61
- 1.1632 1 2 cbr 150 ------- 0 0.0 2.0 51 51
r 1.1682 1 2 cbr 150 ------- 0 0.0 2.0 50 50
+ 1.17 0 1 cbr 150 ------- 0 0.0 2.0 67 67
- 1.17 0 1 cbr 150 ------- 0 0.0 2.0 67 67
r 1.1712 0 1 cbr 150 ------- 0 0.0 2.0 62 62
+ 1.1712 1 2 cbr 150 ------- 0 0.0 2.0 62 62
- 1.1752 1 2 cbr 150 ------- 0 0.0 2.0 52 52
+ 1.18 0 1 cbr 150 ------- 0 0.0 2.0 68 68
- 1.18 0 1 cbr 150 ------- 0 0.0 2.0 68 68
r 1.1802 1 2 cbr 150 ------- 0 0.0 2.0 51 51
r 1.1812 0 1 cbr 150 ------- 0 0.0 2.0 63 63
+ 1.1812 1 2 cbr 150 ------- 0 0.0 2.0 63 63
- 1.1872 1 2 cbr 150 ------- 0 0.0 2.0 53 53
+ 1.19 0 1 cbr 150 ------- 0 0.0 2.0 69 69
- 1.19 0 1 cbr 150 ------- 0 0.0 2.0 69 69
r 1.1912 0 1 cbr 150 ------- 0 0.0 2.0 64 64
+ 1.1912 1 2 cbr 150 ------- 0 0.0 2.0 64 64
r 1.1922 1 2 cbr 150 ------- 0 0.0 2.0 52 52
- 1.1992 1 2 cbr 150 ------- 0 0.0 2.0 55 55
+ 1.2 0 1 cbr 150 ------- 0 0.0 2.0 70 70
- 1.2 0 1 cbr 150 ------- 0 0.0 2.0 70 70
r 1.2012 0 1 cbr 150 ------- 0 0.0 2.0 65 65
+ 1.2012 1 2 cbr 150 ------- 0 0.0 2.0 65 65
r 1.2042 1 2 cbr 150 ------- 0 0.0 2.0 53 53
+ 1.21 0 1 cbr 150 ------- 0 0.0 2.0 71 71
- 1.21 0 1 cbr 150 ------- 0 0.0 2.0 71 71
r 1.2112 0 1 cbr 150 ------- 0 0.0 2.0 66 66
+ 1.2112 1 2 cbr 150 ------- 0 0.0 2.0 66 66
d 1.2112 1 2 cbr 150 ------- 0 0.0 2.0 66 66
- 1.2112 1 2 cbr 150 ------- 0 0.0 2.0 56 56
r 1.2162 1 2 cbr 150 ------- 0 0.0 2.0 55 55
+ 1.22 0 1 cbr 150 ------- 0 0.0 2.0 72 72
- 1.22 0 1 cbr 150 ------- 0 0.0 2.0 72 72
r 1.2212 0 1 cbr 150 ------- 0 0.0 2.0 67 67
+ 1.2212 1 2 cbr 150 ------- 0 0.0 2.0 67 67
- 1.2232 1 2 cbr 150 ------- 0 0.0 2.0 57 57
r 1.2282 1 2 cbr 150 ------- 0 0.0 2.0 56 56
+ 1.23 0 1 cbr 150 ------- 0 0.0 2.0 73 73
- 1.23 0 1 cbr 150 ------- 0 0.0 2.0 73 73
r 1.2312 0 1 cbr 150 ------- 0 0.0 2.0 68 68
+ 1.2312 1 2 cbr 150 ------- 0 0.0 2.0 68 68
- 1.2352 1 2 cbr 150 ------- 0 0.0 2.0 58 58
+ 1.24 0 1 cbr 150 ------- 0 0.0 2.0 74 74
- 1.24 0 1 cbr 150 ------- 0 0.0 2.0 74 74
r 1.2402 1 2 cbr 150 ------- 0 0.0 2.0 57 57
r 1.2412 0 1 cbr 150 ------- 0 0.0 2.0 69 69
+ 1.2412 1 2 cbr 150 ------- 0 0.0 2.0 69 69
- 1.2472 1 2 cbr 150 ------- 0 0.0 2.0 59 59
+ 1.25 0 1 cbr 150 ------- 0 0.0 2.0 75 75
- 1.25 0 1 cbr 150 ------- 0 0.0 2.0 75 75
r 1.2512 0 1 cbr 150 ------- 0 0.0 2.0 70 70
+ 1.2512 1 2 cbr 150 ------- 0 0.0 2.0 70 70
r 1.2522 1 2 cbr 150 ------- 0 0.0 2.0 58 58
- 1.2592 1 2 cbr 150 ------- 0 0.0 2.0 61 61
+ 1.26 0 1 cbr 150 ------- 0 0.0 2.0 76 76
- 1.26 0 1 cbr 150 ------- 0 0.0 2.0 76 76
r 1.2612 0 1 cbr 150 ------- 0 0.0 2.0 71 71
+ 1.2612 1 2 cbr 150 ------- 0 0.0 2.0 71 71
r 1.2642 1 2 cbr 150 ------- 0 0.0 2.0 59 59
+ 1.27 0 1 cbr 150 ------- 0 0.0 2.0 77 77
- 1.27 0 1 cbr 150 ------- 0 0.0 2.0 77 77
r 1.2712 0 1 cbr 150 ------- 0 0.0 2.0 72 72
+ 1.2712 1 2 cbr 150 ------- 0 0.0 2.0 72 72
d 1.2712 1 2 cbr 150 ------- 0 0.0 2.0 72 72
- 1.2712 1 2 cbr 150 ------- 0 0.0 2.0 62 62
r 1.2762 1 2 cbr 150 ------- 0 0.0 2.0 61 61
+ 1.28 0 1 cbr 150 ------- 0 0.0 2.0 78 78
- 1.28 0 1 cbr 150 ------- 0 0.0 2.0 78 78
r 1.2812 0 1 cbr 150 ------- 0 0.0 2.0 73 73
+ 1.2812 1 2 cbr 150 ------- 0 0.0 2.0 73 73
- 1.2832 1 2 cbr 150 ------- 0 0.0 2.0 63 63
r 1.2882 1 2 cbr 150 ------- 0 0.0 2.0 62 62
+ 1.29 0 1 cbr 150 ------- 0 0.0 2.0 79 79
- 1.29 0 1 cbr 150 ------- 0 0.0 2.0 79 79
r 1.2912 0 1 cbr 150 ------- 0 0.0 2.0 74 74
+ 1.2912 1 2 cbr 150 ------- 0 0.0 2.0 74 74
- 1.2952 1 2 cbr 150 ------- 0 0.0 2.0 64 64
+ 1.3 0 1 cbr 150 ------- 0 0.0 2.0 80 80
- 1.3 0 1 cbr 150 ------- 0 0.0 2.0 80 80
r 1.3002 1 2 cbr 150 ------- 0 0.0 2.0 63 63
r 1.3012 0 1 cbr 150 ------- 0 0.0 2.0 75 75
+ 1.3012 1 2 cbr 150 ------- 0 0.0 2.0 75 75
- 1.3072 1 2 cbr 150 ------- 0 0.0 2.0 65 65
+ 1.31 0 1 cbr 150 ------- 0 0.0 2.0 81 81
- 1.31 0 1 cbr 150 ------- 0 0.0 2.0 81 81
r 1.3112 0 1 cbr 150 ------- 0 0.0 2.0 76 76
+ 1.3112 1 2 cbr 150 ------- 0 0.0 2.0 76 76
r 1.3122 1 2 cbr 150 ------- 0 0.0 2.0 64 64
- 1.3192 1 2 cbr 150 ------- 0 0.0 2.0 67 67
+ 1.32 0 1 cbr 150 ------- 0 0.0 2.0 82 82
- 1.32 0 1 cbr 150 ------- 0 0.0 2.0 82 82
r 1.3212 0 1 cbr 150 ------- 0 0.0 2.0 77 77
+ 1.3212 1 2 cbr 150 ------- 0 0.0 2.0 77 77
r 1.3242 1 2 cbr 150 ------- 0 0.0 2.0 65 65
+ 1.33 0 1 cbr 150 ------- 0 0.0 2.0 83 83
- 1.33 0 1 cbr 150 ------- 0 0.0 2.0 83 83
r 1.3312 0 1 cbr 150 ------- 0 0.0 2.0 78 78
+ 1.3312 1 2 cbr 150 ------- 0 0.0 2.0 78 78
d 1.3312 1 2 cbr 150 ------- 0 0.0 2.0 78 78
- 1.3312 1 2 cbr 150 ------- 0 0.0 2.0 68 68
r 1.3362 1 2 cbr 150 ------- 0 0.0 2.0 67 67
+ 1.34 0 1 cbr 150 ------- 0 0.0 2.0 84 84
- 1.34 0 1 cbr 150 ------- 0 0.0 2.0 84 84
r 1.3412 0 1 cbr 150 ------- 0 0.0 2.0 79 79
+ 1.3412 1 2 cbr 150 ------- 0 0.0 2.0 79 79
- 1.3432 1 2 cbr 150 ------- 0 0.0 2.0 69 69
r 1.3482 1 2 cbr 150 ------- 0 0.0 2.0 68 68
+ 1.35 0 1 cbr 150 ------- 0 0.0 2.0 85 85
- 1.35 0 1 cbr 150 ------- 0 0.0 2.0 85 85
r 1.3512 0 1 cbr 150 ------- 0 0.0 2.0 80 80
+ 1.3512 1 2 cbr 150 ------- 0 0.0 2.0 80 80
- 1.3552 1 2 cbr 150 ------- 0 0.0 2.0 70 70
+ 1.36 0 1 cbr 150 ------- 0 0.0 2.0 86 86
- 1.36 0 1 cbr 150 ------- 0 0.0 2.0 86 86
r 1.3602 1 2 cbr 150 ------- 0 0.0 2.0 69 69
r 1.3612 0 1 cbr 150 ------- 0 0.0 2.0 81 81
+ 1.3612 1 2 cbr 150 ------- 0 0.0 2.0 81 81
- 1.3672 1 2 cbr 150 ------- 0 0.0 2.0 71 71
+ 1.37 0 1 cbr 150 ------- 0 0.0 2.0 87 87
- 1.37 0 1 cbr 150 ------- 0 0.0 2.0 87 87
r 1.3712 0 1 cbr 150 ------- 0 0.0 2.0 82 82
+ 1.3712 1 2 cbr 150 ------- 0 0.0 2.0 82 82
r 1.3722 1 2 cbr 150 ------- 0 0.0 2.0 70 70
- 1.3792 1 2 cbr 150 ------- 0 0.0 2.0 73 73
+ 1.38 0 1 cbr 150 ------- 0 0.0 2.0 88 88
- 1.38 0 1 cbr 150 ------- 0 0.0 2.0 88 88
r 1.3812 0 1 cbr 150 ------- 0 0.0 2.0 83 83
+ 1.3812 1 2 cbr 150 ------- 0 0.0 2.0 83 83
r 1.3842 1 2 cbr 150 ------- 0 0.0 2.0 71 71
+ 1.39 0 1 cbr 150 ------- 0 0.0 2.0 89 89
- 1.39 0 1 cbr 150 ------- 0 0.0 2.0 89 89
r 1.3912 0 1 cbr 150 ------- 0 0.0 2.0 84 84
+ 1.3912 1 2 cbr 150 ------- 0 0.0 2.0 84 84
d 1.3912 1 2 cbr 150 ------- 0 0.0 2.0 84 84
- 1.3912 1 2 cbr 150 ------- 0 0.0 2.0 74 74
r 1.3962 1 2 cbr 150 ------- 0 0.0 2.0 73 73
+ 1.4 0 1 cbr 150 ------- 0 0.0 2.0 90 90
- 1.4 0 1 cbr 150 ------- 0 0.0 2.0 90 90
r 1.4012 0 1 cbr 150 ------- 0 0.0 2.0 85 85
+ 1.4012 1 2 cbr 150 ------- 0 0.0 2.0 85 85
- 1.4032 1 2 cbr 150 ------- 0 0.0 2.0 75 75
r 1.4082 1 2 cbr 150 ------- 0 0.0 2.0 74 74
+ 1.41 0 1 cbr 150 ------- 0 0.0 2.0 91 91
- 1.41 0 1 cbr 150 ------- 0 0.0 2.0 91 91
r 1.4112 0 1 cbr 150 ------- 0 0.0 2.0 86 86
+ 1.4112 1 2 cbr 150 ------- 0 0.0 2.0 86 86
- 1.4152 1 2 cbr 150 ------- 0 0.0 2.0 76 76
+ 1.42 0 1 cbr 150 ------- 0 0.0 2.0 92 92
- 1.42 0 1 cbr 150 ------- 0 0.0 2.0 92 92
r 1.4202 1 2 cbr 150 ------- 0 0.0 2.0 75 75
r 1.4212 0 1 cbr 150 ------- 0 0.0 2.0 87 87
+ 1.4212 1 2 cbr 150 ------- 0 0.0 2.0 87 87
- 1.4272 1 2 cbr 150 ------- 0 0.0 2.0 77 77
+ 1.43 0 1 cbr 150 ------- 0 0.0 2.0 93 93
- 1.43 0 1 cbr 150 ------- 0 0.0 2.0 93 93
r 1.4312 0 1 cbr 150 ------- 0 0.0 2.0 88 88
+ 1.4312 1 2 cbr 150 ------- 0 0.0 2.0 88 88
r 1.4322 1 2 cbr 150 ------- 0 0.0 2.0 76 76
- 1.4392 1 2 cbr 150 ------- 0 0.0 2.0 79 79
+ 1.44 0 1 cbr 150 ------- 0 0.0 2.0 94 94
- 1.44 0 1 cbr 150 ------- 0 0.0 2.0 94 94
r 1.4412 0 1 cbr 150 ------- 0 0.0 2.0 89 89
+ 1.4412 1 2 cbr 150 ------- 0 0.0 2.0 89 89
r 1.4442 1 2 cbr 150 ------- 0 0.0 2.0 77 77
+ 1.45 0 1 cbr 150 ------- 0 0.0 2.0 95 95
- 1.45 0 1 cbr 150 ------- 0 0.0 2.0 95 95
r 1.4512 0 1 cbr 150 ------- 0 0.0 2.0 90 90
+ 1.4512 1 2 cbr 150 ------- 0 0.0 2.0 90 90
d 1.4512 1 2 cbr 150 ------- 0 0.0 2.0 90 90
- 1.4512 1 2 cbr 150 ------- 0 0.0 2.0 80 80
r 1.4562 1 2 cbr 150 ------- 0 0.0 2.0 79 79
+ 1.46 0 1 cbr 150 ------- 0 0.0 2.0 96 96
- 1.46 0 1 cbr 150 ------- 0 0.0 2.0 96 96
r 1.4612 0 1 cbr 150 ------- 0 0.0 2.0 91 91
+ 1.4612 1 2 cbr 150 ------- 0 0.0 2.0 91 91
- 1.4632 1 2 cbr 150 ------- 0 0.0 2.0 81 81
r 1.4682 1 2 cbr 150 ------- 0 0.0 2.0 80 80
+ 1.47 0 1 cbr 150 ------- 0 0.0 2.0 97 97
- 1.47 0 1 cbr 150 ------- 0 0.0 2.0 97 97
r 1.4712 0 1 cbr 150 ------- 0 0.0 2.0 92 92
+ 1.4712 1 2 cbr 150 ------- 0 0.0 2.0 92 92
- 1.4752 1 2 cbr 150 ------- 0 0.0 2.0 82 82
+ 1.48 0 1 cbr 150 ------- 0 0.0 2.0 98 98
- 1.48 0 1 cbr 150 ------- 0 0.0 2.0 98 98
r 1.4802 1 2 cbr 150 ------- 0 0.0 2.0 81 81
r 1.4812 0 1 cbr 150 ------- 0 0.0 2.0 93 93
+ 1.4812 1 2 cbr 150 ------- 0 0.0 2.0 93 93
- 1.4872 1 2 cbr 150 ------- 0 0.0 2.0 83 83
+ 1.49 0 1 cbr 150 ------- 0 0.0 2.0 99 99
- 1.49 0 1 cbr 150 ------- 0 0.0 2.0 99 99
r 1.4912 0 1 cbr 150 ------- 0 0.0 2.0 94 94
+ 1.4912 1 2 cbr 150 ------- 0 0.0 2.0 94 94
r 1.4922 1 2 cbr 150 ------- 0 0.0 2.0 82 82
- 1.4992 1 2 cbr 150 ------- 0 0.0 2.0 85 85
+ 1.5 0 1 cbr 150 ------- 0 0.0 2.0 100 100
- 1.5 0 1 cbr 150 ------- 0 0.0 2.0 100 100
r 1.5012 0 1 cbr 150 ------- 0 0.0 2.0 95 95
+ 1.5012 1 2 cbr 150 ------- 0 0.0 2.0 95 95
r 1.5042 1 2 cbr 150 ------- 0 0.0 2.0 83 83
+ 1.51 0 1 cbr 150 ------- 0 0.0 2.0 101 101
- 1.51 0 1 cbr 150 ------- 0 0.0 2.0 101 101
r 1.5112 0 1 cbr 150 ------- 0 0.0 2.0 96 96
+ 1.5112 1 2 cbr 150 ------- 0 0.0 2.0 96 96
d 1.5112 1 2 cbr 150 ------- 0 0.0 2.0 96 96
- 1.5112 1 2 cbr 150 ------- 0 0.0 2.0 86 86
r 1.5162 1 2 cbr 150 ------- 0 0.0 2.0 85 85
+ 1.52 0 1 cbr 150 ------- 0 0.0 2.0 102 102
- 1.52 0 1 cbr 150 ------- 0 0.0 2.0 102 102
r 1.5212 0 1 cbr 150 ------- 0 0.0 2.0 97 97
+ 1.5212 1 2 cbr 150 ------- 0 0.0 2.0 97 97
- 1.5232 1 2 cbr 150 ------- 0 0.0 2.0 87 87
r 1.5282 1 2 cbr 150 ------- 0 0.0 2.0 86 86
+ 1.53 0 1 cbr 150 ------- 0 0.0 2.0 103 103
- 1.53 0 1 cbr 150 ------- 0 0.0 2.0 103 103
r 1.5312 0 1 cbr 150 ------- 0 0.0 2.0 98 98
+ 1.5312 1 2 cbr 150 ------- 0 0.0 2.0 98 98
- 1.5352 1 2 cbr 150 ------- 0 0.0 2.0 88 88
+ 1.54 0 1 cbr 150 ------- 0 0.0 2.0 104 104
- 1.54 0 1 cbr 150 ------- 0 0.0 2.0 104 104
r 1.5402 1 2 cbr 150 ------- 0 0.0 2.0 87 87
r 1.5412 0 1 cbr 150 ------- 0 0.0 2.0 99 99
+ 1.5412 1 2 cbr 150 ------- 0 0.0 2.0 99 99
- 1.5472 1 2 cbr 150 ------- 0 0.0 2.0 89 89
+ 1.55 0 1 cbr 150 ------- 0 0.0 2.0 105 105
- 1.55 0 1 cbr 150 ------- 0 0.0 2.0 105 105
r 1.5512 0 1 cbr 150 ------- 0 0.0 2.0 100 100
+ 1.5512 1 2 cbr 150 ------- 0 0.0 2.0 100 100
r 1.5522 1 2 cbr 150 ------- 0 0.0 2.0 88 88
- 1.5592 1 2 cbr 150 ------- 0 0.0 2.0 91 91
+ 1.56 0 1 cbr 150 ------- 0 0.0 2.0 106 106
- 1.56 0 1 cbr 150 ------- 0 0.0 2.0 106 106
r 1.5612 0 1 cbr 150 ------- 0 0.0 2.0 101 101
+ 1.5612 1 2 cbr 150 ------- 0 0.0 2.0 101 101
r 1.5642 1 2 cbr 150 ------- 0 0.0 2.0 89 89
+ 1.57 0 1 cbr 150 ------- 0 0.0 2.0 107 107
- 1.57 0 1 cbr 150 ------- 0 0.0 2.0 107 107
r 1.5712 0 1 cbr 150 ------- 0 0.0 2.0 102 102
+ 1.5712 1 2 cbr 150 ------- 0 0.0 2.0 102 102
d 1.5712 1 2 cbr 150 ------- 0 0.0 2.0 102 102
- 1.5712 1 2 cbr 150 ------- 0 0.0 2.0 92 92
r 1.5762 1 2 cbr 150 ------- 0 0.0 2.0 91 91
+ 1.58 0 1 cbr 150 ------- 0 0.0 2.0 108 108
- 1.58 0 1 cbr 150 ------- 0 0.0 2.0 108 108
r 1.5812 0 1 cbr 150 ------- 0 0.0 2.0 103 103
+ 1.5812 1 2 cbr 150 ------- 0 0.0 2.0 103 103
- 1.5832 1 2 cbr 150 ------- 0 0.0 2.0 93 93
r 1.5882 1 2 cbr 150 ------- 0 0.0 2.0 92 92
+ 1.59 0 1 cbr 150 ------- 0 0.0 2.0 109 109
- 1.59 0 1 cbr 150 ------- 0 0.0 2.0 109 109
r 1.5912 0 1 cbr 150 ------- 0 0.0 2.0 104 104
+ 1.5912 1 2 cbr 150 ------- 0 0.0 2.0 104 104
- 1.5952 1 2 cbr 150 ------- 0 0.0 2.0 94 94
+ 1.6 0 1 cbr 150 ------- 0 0.0 2.0 110 110
- 1.6 0 1 cbr 150 ------- 0 0.0 2.0 110 110
r 1.6002 1 2 cbr 150 ------- 0 0.0 2.0 93 93
r 1.6012 0 1 cbr 150 ------- 0 0.0 2.0 105 105
+ 1.6012 1 2 cbr 150 ------- 0 0.0 2.0 105 105
- 1.6072 1 2 cbr 150 ------- 0 0.0 2.0 95 95
+ 1.61 0 1 cbr 150 ------- 0 0.0 2.0 111 111
- 1.61 0 1 cbr 150 ------- 0 0.0 2.0 111 111
r 1.6112 0 1 cbr 150 ------- 0 0.0 2.0 106 106
+ 1.6112 1 2 cbr 150 ------- 0 0.0 2.0 106 106
r 1.6122 1 2 cbr 150 ------- 0 0.0 2.0 94 94
- 1.6192 1 2 cbr 150 ------- 0 0.0 2.0 97 97
+ 1.62 0 1 cbr 150 ------- 0 0.0 2.0 112 112
- 1.62 0 1 cbr 150 ------- 0 0.0 2.0 112 112
r 1.6212 0 1 cbr 150 ------- 0 0.0 2.0 107 107
+ 1.6212 1 2 cbr 150 ------- 0 0.0 2.0 107 107
r 1.6242 1 2 cbr 150 ------- 0 0.0 2.0 95 95
+ 1.63 0 1 cbr 150 ------- 0 0.0 2.0 113 113
- 1.63 0 1 cbr 150 ------- 0 0.0 2.0 113 113
r 1.6312 0 1 cbr 150 ------- 0 0.0 2.0 108 108
+ 1.6312 1 2 cbr 150 ------- 0 0.0 2.0 108 108
d 1.6312 1 2 cbr 150 ------- 0 0.0 2.0 108 108
- 1.6312 1 2 cbr 150 ------- 0 0.0 2.0 98 98
r 1.6362 1 2 cbr 150 ------- 0 0.0 2.0 97 97
+ 1.64 0 1 cbr 150 ------- 0 0.0 2.0 114 114
- 1.64 0 1 cbr 150 ------- 0 0.0 2.0 114 114
r 1.6412 0 1 cbr 150 ------- 0 0.0 2.0 109 109
+ 1.6412 1 2 cbr 150 ------- 0 0.0 2.0 109 109
- 1.6432 1 2 cbr 150 ------- 0 0.0 2.0 99 99
r 1.6482 1 2 cbr 150 ------- 0 0.0 2.0 98 98
+ 1.65 0 1 cbr 150 ------- 0 0.0 2.0 115 115
- 1.65 0 1 cbr 150 ------- 0 0.0 2.0 115 115
r 1.6512 0 1 cbr 150 ------- 0 0.0 2.0 110 110
+ 1.6512 1 2 cbr 150 ------- 0 0.0 2.0 110 110
- 1.6552 1 2 cbr 150 ------- 0 0.0 2.0 100 100
+ 1.66 0 1 cbr 150 ------- 0 0.0 2.0 116 116
- 1.66 0 1 cbr 150 ------- 0 0.0 2.0 116 116
r 1.6602 1 2 cbr 150 ------- 0 0.0 2.0 99 99
r 1.6612 0 1 cbr 150 ------- 0 0.0 2.0 111 111
+ 1.6612 1 2 cbr 150 ------- 0 0.0 2.0 111 111
- 1.6672 1 2 cbr 150 ------- 0 0.0 2.0 101 101
+ 1.67 0 1 cbr 150 ------- 0 0.0 2.0 117 117
- 1.67 0 1 cbr 150 ------- 0 0.0 2.0 117 117
r 1.6712 0 1 cbr 150 ------- 0 0.0 2.0 112 112
+ 1.6712 1 2 cbr 150 ------- 0 0.0 2.0 112 112
r 1.6722 1 2 cbr 150 ------- 0 0.0 2.0 100 100
- 1.6792 1 2 cbr 150 ------- 0 0.0 2.0 103 103
+ 1.68 0 1 cbr 150 ------- 0 0.0 2.0 118 118
- 1.68 0 1 cbr 150 ------- 0 0.0 2.0 118 118