+ 0.5 0 1 cbr 100 ------- 0 0.0 2.0 0 0
- 0.5 0 1 cbr 100 ------- 0 0.0 2.0 0 0
+ 0.51 0 1 cbr 100 ------- 0 0.0 2.0 1 1
- 0.51 0 1 cbr 100 ------- 0 0.0 2.0 1 1
+ 0.52 0 1 cbr 100 ------- 0 0.0 2.0 2 2
- 0.52 0 1 cbr 100 ------- 0 0.0 2.0 2 2
+ 0.53 0 1 cbr 100 ------- 0 0.0 2.0 3 3
- 0.53 0 1 cbr 100 ------- 0 0.0 2.0 3 3
+ 0.54 0 1 cbr 100 ------- 0 0.0 2.0 4 4
- 0.54 0 1 cbr 100 ------- 0 0.0 2.0 4 4
+ 0.55 0 1 cbr 100 ------- 0 0.0 2.0 5 5
- 0.55 0 1 cbr 100 ------- 0 0.0 2.0 5 5
r 0.5508 0 1 cbr 100 ------- 0 0.0 2.0 0 0
+ 0.5508 1 2 cbr 100 ------- 0 0.0 2.0 0 0
- 0.5508 1 2 cbr 100 ------- 0 0.0 2.0 0 0
+ 0.56 0 1 cbr 100 ------- 0 0.0 2.0 6 6
- 0.56 0 1 cbr 100 ------- 0 0.0 2.0 6 6
r 0.5608 0 1 cbr 100 ------- 0 0.0 2.0 1 1
+ 0.5608 1 2 cbr 100 ------- 0 0.0 2.0 1 1
- 0.5608 1 2 cbr 100 ------- 0 0.0 2.0 1 1
r 0.5638 1 2 cbr 100 ------- 0 0.0 2.0 0 0
+ 0.57 0 1 cbr 100 ------- 0 0.0 2.0 7 7
- 0.57 0 1 cbr 100 ------- 0 0.0 2.0 7 7
r 0.5708 0 1 cbr 100 ------- 0 0.0 2.0 2 2
+ 0.5708 1 2 cbr 100 ------- 0 0.0 2.0 2 2
- 0.5708 1 2 cbr 100 ------- 0 0.0 2.0 2 2
r 0.5738 1 2 cbr 100 ------- 0 0.0 2.0 1 1
+ 0.58 0 1 cbr 100 ------- 0 0.0 2.0 8 8
- 0.58 0 1 cbr 100 ------- 0 0.0 2.0 8 8
r 0.5808 0 1 cbr 100 ------- 0 0.0 2.0 3 3
+ 0.5808 1 2 cbr 100 ------- 0 0.0 2.0 3 3
- 0.5808 1 2 cbr 100 ------- 0 0.0 2.0 3 3
r 0.5838 1 2 cbr 100 ------- 0 0.0 2.0 2 2
+ 0.59 0 1 cbr 100 ------- 0 0.0 2.0 9 9
- 0.59 0 1 cbr 100 ------- 0 0.0 2.0 9 9
r 0.5908 0 1 cbr 100 ------- 0 0.0 2.0 4 4
+ 0.5908 1 2 cbr 100 ------- 0 0.0 2.0 4 4
- 0.5908 1 2 cbr 100 ------- 0 0.0 2.0 4 4
r 0.5938 1 2 cbr 100 ------- 0 0.0 2.0 3 3
+ 0.6 0 1 cbr 100 ------- 0 0.0 2.0 10 10
- 0.6 0 1 cbr 100 ------- 0 0.0 2.0 10 10
r 0.6008 0 1 cbr 100 ------- 0 0.0 2.0 5 5
+ 0.6008 1 2 cbr 100 ------- 0 0.0 2.0 5 5
- 0.6008 1 2 cbr 100 ------- 0 0.0 2.0 5 5
r 0.6038 1 2 cbr 100 ------- 0 0.0 2.0 4 4
+ 0.61 0 1 cbr 100 ------- 0 0.0 2.0 11 11
- 0.61 0 1 cbr 100 ------- 0 0.0 2.0 11 11
r 0.6108 0 1 cbr 100 ------- 0 0.0 2.0 6 6
+ 0.6108 1 2 cbr 100 ------- 0 0.0 2.0 6 6
- 0.6108 1 2 cbr 100 ------- 0 0.0 2.0 6 6
r 0.6138 1 2 cbr 100 ------- 0 0.0 2.0 5 5
+ 0.62 0 1 cbr 100 ------- 0 0.0 2.0 12 12
- 0.62 0 1 cbr 100 ------- 0 0.0 2.0 12 12
r 0.6208 0 1 cbr 100 ------- 0 0.0 2.0 7 7
+ 0.6208 1 2 cbr 100 ------- 0 0.0 2.0 7 7
- 0.6208 1 2 cbr 100 ------- 0 0.0 2.0 7 7
r 0.6238 1 2 cbr 100 ------- 0 0.0 2.0 6 6
+ 0.63 0 1 cbr 100 ------- 0 0.0 2.0 13 13
- 0.63 0 1 cbr 100 ------- 0 0.0 2.0 13 13
r 0.6308 0 1 cbr 100 ------- 0 0.0 2.0 8 8
+ 0.6308 1 2 cbr 100 ------- 0 0.0 2.0 8 8
- 0.6308 1 2 cbr 100 ------- 0 0.0 2.0 8 8
r 0.6338 1 2 cbr 100 ------- 0 0.0 2.0 7 7
+ 0.64 0 1 cbr 100 ------- 0 0.0 2.0 14 14
- 0.64 0 1 cbr 100 ------- 0 0.0 2.0 14 14
r 0.6408 0 1 cbr 100 ------- 0 0.0 2.0 9 9
+ 0.6408 1 2 cbr 100 ------- 0 0.0 2.0 9 9
- 0.6408 1 2 cbr 100 ------- 0 0.0 2.0 9 9
r 0.6438 1 2 cbr 100 ------- 0 0.0 2.0 8 8
+ 0.65 0 1 cbr 100 ------- 0 0.0 2.0 15 15
- 0.65 0 1 cbr 100 ------- 0 0.0 2.0 15 15
r 0.6508 0 1 cbr 100 ------- 0 0.0 2.0 10 10
+ 0.6508 1 2 cbr 100 ------- 0 0.0 2.0 10 10
- 0.6508 1 2 cbr 100 ------- 0 0.0 2.0 10 10
r 0.6538 1 2 cbr 100 ------- 0 0.0 2.0 9 9
+ 0.66 0 1 cbr 100 ------- 0 0.0 2.0 16 16
- 0.66 0 1 cbr 100 ------- 0 0.0 2.0 16 16
r 0.6608 0 1 cbr 100 ------- 0 0.0 2.0 11 11
+ 0.6608 1 2 cbr 100 ------- 0 0.0 2.0 11 11
- 0.6608 1 2 cbr 100 ------- 0 0.0 2.0 11 11
r 0.6638 1 2 cbr 100 ------- 0 0.0 2.0 10 10
+ 0.67 0 1 cbr 100 ------- 0 0.0 2.0 17 17
- 0.67 0 1 cbr 100 ------- 0 0.0 2.0 17 17
r 0.6708 0 1 cbr 100 ------- 0 0.0 2.0 12 12
+ 0.6708 1 2 cbr 100 ------- 0 0.0 2.0 12 12
- 0.6708 1 2 cbr 100 ------- 0 0.0 2.0 12 12
r 0.6738 1 2 cbr 100 ------- 0 0.0 2.0 11 11
+ 0.68 0 1 cbr 100 ------- 0 0.0 2.0 18 18
- 0.68 0 1 cbr 100 ------- 0 0.0 2.0 18 18
r 0.6808 0 1 cbr 100 ------- 0 0.0 2.0 13 13
+ 0.6808 1 2 cbr 100 ------- 0 0.0 2.0 13 13
- 0.6808 1 2 cbr 100 ------- 0 0.0 2.0 13 13
r 0.6838 1 2 cbr 100 ------- 0 0.0 2.0 12 12
+ 0.69 0 1 cbr 100 ------- 0 0.0 2.0 19 19
- 0.69 0 1 cbr 100 ------- 0 0.0 2.0 19 19
r 0.6908 0 1 cbr 100 ------- 0 0.0 2.0 14 14
+ 0.6908 1 2 cbr 100 ------- 0 0.0 2.0 14 14
- 0.6908 1 2 cbr 100 ------- 0 0.0 2.0 14 14
r 0.6938 1 2 cbr 100 ------- 0 0.0 2.0 13 13
+ 0.7 0 1 cbr 100 ------- 0 0.0 2.0 20 20
- 0.7 0 1 cbr 100 ------- 0 0.0 2.0 20 20
r 0.7008 0 1 cbr 100 ------- 0 0.0 2.0 15 15
+ 0.7008 1 2 cbr 100 ------- 0 0.0 2.0 15 15
- 0.7008 1 2 cbr 100 ------- 0 0.0 2.0 15 15
r 0.7038 1 2 cbr 100 ------- 0 0.0 2.0 14 14
+ 0.71 0 1 cbr 100 ------- 0 0.0 2.0 21 21
- 0.71 0 1 cbr 100 ------- 0 0.0 2.0 21 21
r 0.7108 0 1 cbr 100 ------- 0 0.0 2.0 16 16
+ 0.7108 1 2 cbr 100 ------- 0 0.0 2.0 16 16
- 0.7108 1 2 cbr 100 ------- 0 0.0 2.0 16 16
r 0.7138 1 2 cbr 100 ------- 0 0.0 2.0 15 15
+ 0.72 0 1 cbr 100 ------- 0 0.0 2.0 22 22
- 0.72 0 1 cbr 100 ------- 0 0.0 2.0 22 22
r 0.7208 0 1 cbr 100 ------- 0 0.0 2.0 17 17
+ 0.7208 1 2 cbr 100 ------- 0 0.0 2.0 17 17
- 0.7208 1 2 cbr 100 ------- 0 0.0 2.0 17 17
r 0.7238 1 2 cbr 100 ------- 0 0.0 2.0 16 16
+ 0.73 0 1 cbr 100 ------- 0 0.0 2.0 23 23
- 0.73 0 1 cbr 100 ------- 0 0.0 2.0 23 23
r 0.7308 0 1 cbr 100 ------- 0 0.0 2.0 18 18
+ 0.7308 1 2 cbr 100 ------- 0 0.0 2.0 18 18
- 0.7308 1 2 cbr 100 ------- 0 0.0 2.0 18 18
r 0.7338 1 2 cbr 100 ------- 0 0.0 2.0 17 17
+ 0.74 0 1 cbr 100 ------- 0 0.0 2.0 24 24
- 0.74 0 1 cbr 100 ------- 0 0.0 2.0 24 24
r 0.7408 0 1 cbr 100 ------- 0 0.0 2.0 19 19
+ 0.7408 1 2 cbr 100 ------- 0 0.0 2.0 19 19
- 0.7408 1 2 cbr 100 ------- 0 0.0 2.0 19 19
r 0.7438 1 2 cbr 100 ------- 0 0.0 2.0 18 18
+ 0.75 0 1 cbr 100 ------- 0 0.0 2.0 25 25
- 0.75 0 1 cbr 100 ------- 0 0.0 2.0 25 25
r 0.7508 0 1 cbr 100 ------- 0 0.0 2.0 20 20
+ 0.7508 1 2 cbr 100 ------- 0 0.0 2.0 20 20
- 0.7508 1 2 cbr 100 ------- 0 0.0 2.0 20 20
r 0.7538 1 2 cbr 100 ------- 0 0.0 2.0 19 19
+ 0.76 0 1 cbr 100 ------- 0 0.0 2.0 26 26
- 0.76 0 1 cbr 100 ------- 0 0.0 2.0 26 26
r 0.7608 0 1 cbr 100 ------- 0 0.0 2.0 21 21
+ 0.7608 1 2 cbr 100 ------- 0 0.0 2.0 21 21
- 0.7608 1 2 cbr 100 ------- 0 0.0 2.0 21 21
r 0.7638 1 2 cbr 100 ------- 0 0.0 2.0 20 20
+ 0.77 0 1 cbr 100 ------- 0 0.0 2.0 27 27
- 0.77 0 1 cbr 100 ------- 0 0.0 2.0 27 27
r 0.7708 0 1 cbr 100 ------- 0 0.0 2.0 22 22
+ 0.7708 1 2 cbr 100 ------- 0 0.0 2.0 22 22
- 0.7708 1 2 cbr 100 ------- 0 0.0 2.0 22 22
r 0.7738 1 2 cbr 100 ------- 0 0.0 2.0 21 21
+ 0.78 0 1 cbr 100 ------- 0 0.0 2.0 28 28
- 0.78 0 1 cbr 100 ------- 0 0.0 2.0 28 28
r 0.7808 0 1 cbr 100 ------- 0 0.0 2.0 23 23
+ 0.7808 1 2 cbr 100 ------- 0 0.0 2.0 23 23
- 0.7808 1 2 cbr 100 ------- 0 0.0 2.0 23 23
r 0.7838 1 2 cbr 100 ------- 0 0.0 2.0 22 22
+ 0.79 0 1 cbr 100 ------- 0 0.0 2.0 29 29
- 0.79 0 1 cbr 100 ------- 0 0.0 2.0 29 29
r 0.7908 0 1 cbr 100 ------- 0 0.0 2.0 24 24
+ 0.7908 1 2 cbr 100 ------- 0 0.0 2.0 24 24
- 0.7908 1 2 cbr 100 ------- 0 0.0 2.0 24 24
r 0.7938 1 2 cbr 100 ------- 0 0.0 2.0 23 23
+ 0.8 0 1 cbr 100 ------- 0 0.0 2.0 30 30
- 0.8 0 1 cbr 100 ------- 0 0.0 2.0 30 30
r 0.8008 0 1 cbr 100 ------- 0 0.0 2.0 25 25
+ 0.8008 1 2 cbr 100 ------- 0 0.0 2.0 25 25
- 0.8008 1 2 cbr 100 ------- 0 0.0 2.0 25 25
r 0.8038 1 2 cbr 100 ------- 0 0.0 2.0 24 24
+ 0.81 0 1 cbr 100 ------- 0 0.0 2.0 31 31
- 0.81 0 1 cbr 100 ------- 0 0.0 2.0 31 31
r 0.8108 0 1 cbr 100 ------- 0 0.0 2.0 26 26
+ 0.8108 1 2 cbr 100 ------- 0 0.0 2.0 26 26
- 0.8108 1 2 cbr 100 ------- 0 0.0 2.0 26 26
r 0.8138 1 2 cbr 100 ------- 0 0.0 2.0 25 25
+ 0.82 0 1 cbr 100 ------- 0 0.0 2.0 32 32
- 0.82 0 1 cbr 100 ------- 0 0.0 2.0 32 32
r 0.8208 0 1 cbr 100 ------- 0 0.0 2.0 27 27
+ 0.8208 1 2 cbr 100 ------- 0 0.0 2.0 27 27
- 0.8208 1 2 cbr 100 ------- 0 0.0 2.0 27 27
r 0.8238 1 2 cbr 100 ------- 0 0.0 2.0 26 26
+ 0.83 0 1 cbr 100 ------- 0 0.0 2.0 33 33
- 0.83 0 1 cbr 100 ------- 0 0.0 2.0 33 33
r 0.8308 0 1 cbr 100 ------- 0 0.0 2.0 28 28
+ 0.8308 1 2 cbr 100 ------- 0 0.0 2.0 28 28
- 0.8308 1 2 cbr 100 ------- 0 0.0 2.0 28 28
r 0.8338 1 2 cbr 100 ------- 0 0.0 2.0 27 27
+ 0.84 0 1 cbr 100 ------- 0 0.0 2.0 34 34
- 0.84 0 1 cbr 100 ------- 0 0.0 2.0 34 34
r 0.8408 0 1 cbr 100 ------- 0 0.0 2.0 29 29
+ 0.8408 1 2 cbr 100 ------- 0 0.0 2.0 29 29
- 0.8408 1 2 cbr 100 ------- 0 0.0 2.0 29 29
r 0.8438 1 2 cbr 100 ------- 0 0.0 2.0 28 28
+ 0.85 0 1 cbr 100 ------- 0 0.0 2.0 35 35
- 0.85 0 1 cbr 100 ------- 0 0.0 2.0 35 35
r 0.8508 0 1 cbr 100 ------- 0 0.0 2.0 30 30
+ 0.8508 1 2 cbr 100 ------- 0 0.0 2.0 30 30
- 0.8508 1 2 cbr 100 ------- 0 0.0 2.0 30 30
r 0.8538 1 2 cbr 100 ------- 0 0.0 2.0 29 29
+ 0.86 0 1 cbr 100 ------- 0 0.0 2.0 36 36
- 0.86 0 1 cbr 100 ------- 0 0.0 2.0 36 36
r 0.8608 0 1 cbr 100 ------- 0 0.0 2.0 31 31
+ 0.8608 1 2 cbr 100 ------- 0 0.0 2.0 31 31
- 0.8608 1 2 cbr 100 ------- 0 0.0 2.0 31 31
r 0.8638 1 2 cbr 100 ------- 0 0.0 2.0 30 30
+ 0.87 0 1 cbr 100 ------- 0 0.0 2.0 37 37
- 0.87 0 1 cbr 100 ------- 0 0.0 2.0 37 37
r 0.8708 0 1 cbr 100 ------- 0 0.0 2.0 32 32
+ 0.8708 1 2 cbr 100 ------- 0 0.0 2.0 32 32
- 0.8708 1 2 cbr 100 ------- 0 0.0 2.0 32 32
r 0.8738 1 2 cbr 100 ------- 0 0.0 2.0 31 31
+ 0.88 0 1 cbr 100 ------- 0 0.0 2.0 38 38
- 0.88 0 1 cbr 100 ------- 0 0.0 2.0 38 38
r 0.8808 0 1 cbr 100 ------- 0 0.0 2.0 33 33
+ 0.8808 1 2 cbr 100 ------- 0 0.0 2.0 33 33
- 0.8808 1 2 cbr 100 ------- 0 0.0 2.0 33 33
r 0.8838 1 2 cbr 100 ------- 0 0.0 2.0 32 32
+ 0.89 0 1 cbr 100 ------- 0 0.0 2.0 39 39
- 0.89 0 1 cbr 100 ------- 0 0.0 2.0 39 39
r 0.8908 0 1 cbr 100 ------- 0 0.0 2.0 34 34
+ 0.8908 1 2 cbr 100 ------- 0 0.0 2.0 34 34
- 0.8908 1 2 cbr 100 ------- 0 0.0 2.0 34 34
r 0.8938 1 2 cbr 100 ------- 0 0.0 2.0 33 33
+ 0.9 0 1 cbr 100 ------- 0 0.0 2.0 40 40
- 0.9 0 1 cbr 100 ------- 0 0.0 2.0 40 40
r 0.9008 0 1 cbr 100 ------- 0 0.0 2.0 35 35
+ 0.9008 1 2 cbr 100 ------- 0 0.0 2.0 35 35
- 0.9008 1 2 cbr 100 ------- 0 0.0 2.0 35 35
r 0.9038 1 2 cbr 100 ------- 0 0.0 2.0 34 34
+ 0.91 0 1 cbr 100 ------- 0 0.0 2.0 41 41
- 0.91 0 1 cbr 100 ------- 0 0.0 2.0 41 41
r 0.9108 0 1 cbr 100 ------- 0 0.0 2.0 36 36
+ 0.9108 1 2 cbr 100 ------- 0 0.0 2.0 36 36
- 0.9108 1 2 cbr 100 ------- 0 0.0 2.0 36 36
r 0.9138 1 2 cbr 100 ------- 0 0.0 2.0 35 35
+ 0.92 0 1 cbr 100 ------- 0 0.0 2.0 42 42
- 0.92 0 1 cbr 100 ------- 0 0.0 2.0 42 42
r 0.9208 0 1 cbr 100 ------- 0 0.0 2.0 37 37
+ 0.9208 1 2 cbr 100 ------- 0 0.0 2.0 37 37
- 0.9208 1 2 cbr 100 ------- 0 0.0 2.0 37 37
r 0.9238 1 2 cbr 100 ------- 0 0.0 2.0 36 36
+ 0.93 0 1 cbr 100 ------- 0 0.0 2.0 43 43
- 0.93 0 1 cbr 100 ------- 0 0.0 2.0 43 43
r 0.9308 0 1 cbr 100 ------- 0 0.0 2.0 38 38
+ 0.9308 1 2 cbr 100 ------- 0 0.0 2.0 38 38
- 0.9308 1 2 cbr 100 ------- 0 0.0 2.0 38 38
r 0.9338 1 2 cbr 100 ------- 0 0.0 2.0 37 37
+ 0.94 0 1 cbr 100 ------- 0 0.0 2.0 44 44
- 0.94 0 1 cbr 100 ------- 0 0.0 2.0 44 44
r 0.9408 0 1 cbr 100 ------- 0 0.0 2.0 39 39
+ 0.9408 1 2 cbr 100 ------- 0 0.0 2.0 39 39
- 0.9408 1 2 cbr 100 ------- 0 0.0 2.0 39 39
r 0.9438 1 2 cbr 100 ------- 0 0.0 2.0 38 38
+ 0.95 0 1 cbr 100 ------- 0 0.0 2.0 45 45
- 0.95 0 1 cbr 100 ------- 0 0.0 2.0 45 45
r 0.9508 0 1 cbr 100 ------- 0 0.0 2.0 40 40
+ 0.9508 1 2 cbr 100 ------- 0 0.0 2.0 40 40
- 0.9508 1 2 cbr 100 ------- 0 0.0 2.0 40 40
r 0.9538 1 2 cbr 100 ------- 0 0.0 2.0 39 39
+ 0.96 0 1 cbr 100 ------- 0 0.0 2.0 46 46
- 0.96 0 1 cbr 100 ------- 0 0.0 2.0 46 46
r 0.9608 0 1 cbr 100 ------- 0 0.0 2.0 41 41
+ 0.9608 1 2 cbr 100 ------- 0 0.0 2.0 41 41
- 0.9608 1 2 cbr 100 ------- 0 0.0 2.0 41 41
r 0.9638 1 2 cbr 100 ------- 0 0.0 2.0 40 40
+ 0.97 0 1 cbr 100 ------- 0 0.0 2.0 47 47
- 0.97 0 1 cbr 100 ------- 0 0.0 2.0 47 47
r 0.9708 0 1 cbr 100 ------- 0 0.0 2.0 42 42
+ 0.9708 1 2 cbr 100 ------- 0 0.0 2.0 42 42
- 0.9708 1 2 cbr 100 ------- 0 0.0 2.0 42 42
r 0.9738 1 2 cbr 100 ------- 0 0.0 2.0 41 41
+ 0.98 0 1 cbr 100 ------- 0 0.0 2.0 48 48
- 0.98 0 1 cbr 100 ------- 0 0.0 2.0 48 48
r 0.9808 0 1 cbr 100 ------- 0 0.0 2.0 43 43
+ 0.9808 1 2 cbr 100 ------- 0 0.0 2.0 43 43
- 0.9808 1 2 cbr 100 ------- 0 0.0 2.0 43 43
r 0.9838 1 2 cbr 100 ------- 0 0.0 2.0 42 42
+ 0.99 0 1 cbr 100 ------- 0 0.0 2.0 49 49
- 0.99 0 1 cbr 100 ------- 0 0.0 2.0 49 49
r 0.9908 0 1 cbr 100 ------- 0 0.0 2.0 44 44
+ 0.9908 1 2 cbr 100 ------- 0 0.0 2.0 44 44
- 0.9908 1 2 cbr 100 ------- 0 0.0 2.0 44 44
r 0.9938 1 2 cbr 100 ------- 0 0.0 2.0 43 43
+ 1 0 1 cbr 100 ------- 0 0.0 2.0 50 50
- 1 0 1 cbr 100 ------- 0 0.0 2.0 50 50
r 1.0008 0 1 cbr 100 ------- 0 0.0 2.0 45 45
+ 1.0008 1 2 cbr 100 ------- 0 0.0 2.0 45 45
- 1.0008 1 2 cbr 100 ------- 0 0.0 2.0 45 45
r 1.0038 1 2 cbr 100 ------- 0 0.0 2.0 44 44
+ 1.01 0 1 cbr 100 ------- 0 0.0 2.0 51 51
- 1.01 0 1 cbr 100 ------- 0 0.0 2.0 51 51
r 1.0108 0 1 cbr 100 ------- 0 0.0 2.0 46 46
+ 1.0108 1 2 cbr 100 ------- 0 0.0 2.0 46 46
- 1.0108 1 2 cbr 100 ------- 0 0.0 2.0 46 46
r 1.0138 1 2 cbr 100 ------- 0 0.0 2.0 45 45
+ 1.02 0 1 cbr 100 ------- 0 0.0 2.0 52 52
- 1.02 0 1 cbr 100 ------- 0 0.0 2.0 52 52
r 1.0208 0 1 cbr 100 ------- 0 0.0 2.0 47 47
+ 1.0208 1 2 cbr 100 ------- 0 0.0 2.0 47 47
- 1.0208 1 2 cbr 100 ------- 0 0.0 2.0 47 47
r 1.0238 1 2 cbr 100 ------- 0 0.0 2.0 46 46
+ 1.03 0 1 cbr 100 ------- 0 0.0 2.0 53 53
- 1.03 0 1 cbr 100 ------- 0 0.0 2.0 53 53
r 1.0308 0 1 cbr 100 ------- 0 0.0 2.0 48 48
+ 1.0308 1 2 cbr 100 ------- 0 0.0 2.0 48 48
- 1.0308 1 2 cbr 100 ------- 0 0.0 2.0 48 48
r 1.0338 1 2 cbr 100 ------- 0 0.0 2.0 47 47
+ 1.04 0 1 cbr 100 ------- 0 0.0 2.0 54 54
- 1.04 0 1 cbr 100 ------- 0 0.0 2.0 54 54
r 1.0408 0 1 cbr 100 ------- 0 0.0 2.0 49 49
+ 1.0408 1 2 cbr 100 ------- 0 0.0 2.0 49 49
- 1.0408 1 2 cbr 100 ------- 0 0.0 2.0 49 49
r 1.0438 1 2 cbr 100 ------- 0 0.0 2.0 48 48
+ 1.05 0 1 cbr 100 ------- 0 0.0 2.0 55 55
- 1.05 0 1 cbr 100 ------- 0 0.0 2.0 55 55
r 1.0508 0 1 cbr 100 ------- 0 0.0 2.0 50 50
+ 1.0508 1 2 cbr 100 ------- 0 0.0 2.0 50 50
- 1.0508 1 2 cbr 100 ------- 0 0.0 2.0 50 50
r 1.0538 1 2 cbr 100 ------- 0 0.0 2.0 49 49
+ 1.06 0 1 cbr 100 ------- 0 0.0 2.0 56 56
- 1.06 0 1 cbr 100 ------- 0 0.0 2.0 56 56
r 1.0608 0 1 cbr 100 ------- 0 0.0 2.0 51 51
+ 1.0608 1 2 cbr 100 ------- 0 0.0 2.0 51 51
- 1.0608 1 2 cbr 100 ------- 0 0.0 2.0 51 51
r 1.0638 1 2 cbr 100 ------- 0 0.0 2.0 50 50
+ 1.07 0 1 cbr 100 ------- 0 0.0 2.0 57 57
- 1.07 0 1 cbr 100 ------- 0 0.0 2.0 57 57
r 1.0708 0 1 cbr 100 ------- 0 0.0 2.0 52 52
+ 1.0708 1 2 cbr 100 ------- 0 0.0 2.0 52 52
- 1.0708 1 2 cbr 100 ------- 0 0.0 2.0 52 52
r 1.0738 1 2 cbr 100 ------- 0 0.0 2.0 51 51
+ 1.08 0 1 cbr 100 ------- 0 0.0 2.0 58 58
- 1.08 0 1 cbr 100 ------- 0 0.0 2.0 58 58
r 1.0808 0 1 cbr 100 ------- 0 0.0 2.0 53 53
+ 1.0808 1 2 cbr 100 ------- 0 0.0 2.0 53 53
- 1.0808 1 2 cbr 100 ------- 0 0.0 2.0 53 53
r 1.0838 1 2 cbr 100 ------- 0 0.0 2.0 52 52
+ 1.09 0 1 cbr 100 ------- 0 0.0 2.0 59 59
- 1.09 0 1 cbr 100 ------- 0 0.0 2.0 59 59
r 1.0908 0 1 cbr 100 ------- 0 0.0 2.0 54 54
+ 1.0908 1 2 cbr 100 ------- 0 0.0 2.0 54 54
- 1.0908 1 2 cbr 100 ------- 0 0.0 2.0 54 54
r 1.0938 1 2 cbr 100 ------- 0 0.0 2.0 53 53
+ 1.1 0 1 cbr 100 ------- 0 0.0 2.0 60 60
- 1.1 0 1 cbr 100 ------- 0 0.0 2.0 60 60
r 1.1008 0 1 cbr 100 ------- 0 0.0 2.0 55 55
+ 1.1008 1 2 cbr 100 ------- 0 0.0 2.0 55 55
- 1.1008 1 2 cbr 100 ------- 0 0.0 2.0 55 55
r 1.1038 1 2 cbr 100 ------- 0 0.0 2.0 54 54
+ 1.11 0 1 cbr 100 ------- 0 0.0 2.0 61 61
- 1.11 0 1 cbr 100 ------- 0 0.0 2.0 61 61
r 1.1108 0 1 cbr 100 ------- 0 0.0 2.0 56 56
+ 1.1108 1 2 cbr 100 ------- 0 0.0 2.0 56 56
- 1.1108 1 2 cbr 100 ------- 0 0.0 2.0 56 56
r 1.1138 1 2 cbr 100 ------- 0 0.0 2.0 55 55
+ 1.12 0 1 cbr 100 ------- 0 0.0 2.0 62 62
- 1.12 0 1 cbr 100 ------- 0 0.0 2.0 62 62
r 1.1208 0 1 cbr 100 ------- 0 0.0 2.0 57 57
+ 1.1208 1 2 cbr 100 ------- 0 0.0 2.0 57 57
- 1.1208 1 2 cbr 100 ------- 0 0.0 2.0 57 57
r 1.1238 1 2 cbr 100 ------- 0 0.0 2.0 56 56
+ 1.13 0 1 cbr 100 ------- 0 0.0 2.0 63 63
- 1.13 0 1 cbr 100 ------- 0 0.0 2.0 63 63
r 1.1308 0 1 cbr 100 ------- 0 0.0 2.0 58 58
+ 1.1308 1 2 cbr 100 ------- 0 0.0 2.0 58 58
- 1.1308 1 2 cbr 100 ------- 0 0.0 2.0 58 58
r 1.1338 1 2 cbr 100 ------- 0 0.0 2.0 57 57
+ 1.14 0 1 cbr 100 ------- 0 0.0 2.0 64 64
- 1.14 0 1 cbr 100 ------- 0 0.0 2.0 64 64
r 1.1408 0 1 cbr 100 ------- 0 0.0 2.0 59 59
+ 1.1408 1 2 cbr 100 ------- 0 0.0 2.0 59 59
- 1.1408 1 2 cbr 100 ------- 0 0.0 2.0 59 59
r 1.1438 1 2 cbr 100 ------- 0 0.0 2.0 58 58
+ 1.15 0 1 cbr 100 ------- 0 0.0 2.0 65 65
- 1.15 0 1 cbr 100 ------- 0 0.0 2.0 65 65
r 1.1508 0 1 cbr 100 ------- 0 0.0 2.0 60 60
+ 1.1508 1 2 cbr 100 ------- 0 0.0 2.0 60 60
- 1.1508 1 2 cbr 100 ------- 0 0.0 2.0 60 60
r 1.1538 1 2 cbr 100 ------- 0 0.0 2.0 59 59
+ 1.16 0 1 cbr 100 ------- 0 0.0 2.0 66 66
- 1.16 0 1 cbr 100 ------- 0 0.0 2.0 66 66
r 1.1608 0 1 cbr 100 ------- 0 0.0 2.0 61 61
+ 1.1608 1 2 cbr 100 ------- 0 0.0 2.0 61 61
- 1.1608 1 2 cbr 100 ------- 0 0.0 2.0 61 61
r 1.1638 1 2 cbr 100 ------- 0 0.0 2.0 60 60
+ 1.17 0 1 cbr 100 ------- 0 0.0 2.0 67 67
- 1.17 0 1 cbr 100 ------- 0 0.0 2.0 67 67
r 1.1708 0 1 cbr 100 ------- 0 0.0 2.0 62 62
+ 1.1708 1 2 cbr 100 ------- 0 0.0 2.0 62 62
- 1.1708 1 2 cbr 100 ------- 0 0.0 2.0 62 62
r 1.1738 1 2 cbr 100 ------- 0 0.0 2.0 61 61
+ 1.18 0 1 cbr 100 ------- 0 0.0 2.0 68 68
- 1.18 0 1 cbr 100 ------- 0 0.0 2.0 68 68
r 1.1808 0 1 cbr 100 ------- 0 0.0 2.0 63 63
+ 1.1808 1 2 cbr 100 ------- 0 0.0 2.0 63 63
- 1.1808 1 2 cbr 100 ------- 0 0.0 2.0 63 63
r 1.1838 1 2 cbr 100 ------- 0 0.0 2.0 62 62
+ 1.19 0 1 cbr 100 ------- 0 0.0 2.0 69 69
- 1.19 0 1 cbr 100 ------- 0 0.0 2.0 69 69
r 1.1908 0 1 cbr 100 ------- 0 0.0 2.0 64 64
+ 1.1908 1 2 cbr 100 ------- 0 0.0 2.0 64 64
- 1.1908 1 2 cbr 100 ------- 0 0.0 2.0 64 64
r 1.1938 1 2 cbr 100 ------- 0 0.0 2.0 63 63
+ 1.2 0 1 cbr 100 ------- 0 0.0 2.0 70 70
- 1.2 0 1 cbr 100 ------- 0 0.0 2.0 70 70
r 1.2008 0 1 cbr 100 ------- 0 0.0 2.0 65 65
+ 1.2008 1 2 cbr 100 ------- 0 0.0 2.0 65 65
- 1.2008 1 2 cbr 100 ------- 0 0.0 2.0 65 65
r 1.2038 1 2 cbr 100 ------- 0 0.0 2.0 64 64
+ 1.21 0 1 cbr 100 ------- 0 0.0 2.0 71 71
- 1.21 0 1 cbr 100 ------- 0 0.0 2.0 71 71
r 1.2108 0 1 cbr 100 ------- 0 0.0 2.0 66 66
+ 1.2108 1 2 cbr 100 ------- 0 0.0 2.0 66 66
- 1.2108 1 2 cbr 100 ------- 0 0.0 2.0 66 66
r 1.2138 1 2 cbr 100 ------- 0 0.0 2.0 65 65
+ 1.22 0 1 cbr 100 ------- 0 0.0 2.0 72 72
- 1.22 0 1 cbr 100 ------- 0 0.0 2.0 72 72
r 1.2208 0 1 cbr 100 ------- 0 0.0 2.0 67 67
+ 1.2208 1 2 cbr 100 ------- 0 0.0 2.0 67 67
- 1.2208 1 2 cbr 100 ------- 0 0.0 2.0 67 67
r 1.2238 1 2 cbr 100 ------- 0 0.0 2.0 66 66
+ 1.23 0 1 cbr 100 ------- 0 0.0 2.0 73 73
- 1.23 0 1 cbr 100 ------- 0 0.0 2.0 73 73
r 1.2308 0 1 cbr 100 ------- 0 0.0 2.0 68 68
+ 1.2308 1 2 cbr 100 ------- 0 0.0 2.0 68 68
- 1.2308 1 2 cbr 100 ------- 0 0.0 2.0 68 68
r 1.2338 1 2 cbr 100 ------- 0 0.0 2.0 67 67
+ 1.24 0 1 cbr 100 ------- 0 0.0 2.0 74 74
- 1.24 0 1 cbr 100 ------- 0 0.0 2.0 74 74
r 1.2408 0 1 cbr 100 ------- 0 0.0 2.0 69 69
+ 1.2408 1 2 cbr 100 ------- 0 0.0 2.0 69 69
- 1.2408 1 2 cbr 100 ------- 0 0.0 2.0 69 69
r 1.2438 1 2 cbr 100 ------- 0 0.0 2.0 68 68
+ 1.25 0 1 cbr 100 ------- 0 0.0 2.0 75 75
- 1.25 0 1 cbr 100 ------- 0 0.0 2.0 75 75
r 1.2508 0 1 cbr 100 ------- 0 0.0 2.0 70 70
+ 1.2508 1 2 cbr 100 ------- 0 0.0 2.0 70 70
- 1.2508 1 2 cbr 100 ------- 0 0.0 2.0 70 70
r 1.2538 1 2 cbr 100 ------- 0 0.0 2.0 69 69
+ 1.26 0 1 cbr 100 ------- 0 0.0 2.0 76 76
- 1.26 0 1 cbr 100 ------- 0 0.0 2.0 76 76
r 1.2608 0 1 cbr 100 ------- 0 0.0 2.0 71 71
+ 1.2608 1 2 cbr 100 ------- 0 0.0 2.0 71 71
- 1.2608 1 2 cbr 100 ------- 0 0.0 2.0 71 71
r 1.2638 1 2 cbr 100 ------- 0 0.0 2.0 70 70
+ 1.27 0 1 cbr 100 ------- 0 0.0 2.0 77 77
- 1.27 0 1 cbr 100 ------- 0 0.0 2.0 77 77
r 1.2708 0 1 cbr 100 ------- 0 0.0 2.0 72 72
+ 1.2708 1 2 cbr 100 ------- 0 0.0 2.0 72 72
- 1.2708 1 2 cbr 100 ------- 0 0.0 2.0 72 72
r 1.2738 1 2 cbr 100 ------- 0 0.0 2.0 71 71
+ 1.28 0 1 cbr 100 ------- 0 0.0 2.0 78 78
- 1.28 0 1 cbr 100 ------- 0 0.0 2.0 78 78
r 1.2808 0 1 cbr 100 ------- 0 0.0 2.0 73 73
+ 1.2808 1 2 cbr 100 ------- 0 0.0 2.0 73 73
- 1.2808 1 2 cbr 100 ------- 0 0.0 2.0 73 73
r 1.2838 1 2 cbr 100 ------- 0 0.0 2.0 72 72
+ 1.29 0 1 cbr 100 ------- 0 0.0 2.0 79 79
- 1.29 0 1 cbr 100 ------- 0 0.0 2.0 79 79
r 1.2908 0 1 cbr 100 ------- 0 0.0 2.0 74 74
+ 1.2908 1 2 cbr 100 ------- 0 0.0 2.0 74 74
- 1.2908 1 2 cbr 100 ------- 0 0.0 2.0 74 74
r 1.2938 1 2 cbr 100 ------- 0 0.0 2.0 73 73
+ 1.3 0 1 cbr 100 ------- 0 0.0 2.0 80 80
- 1.3 0 1 cbr 100 ------- 0 0.0 2.0 80 80
r 1.3008 0 1 cbr 100 ------- 0 0.0 2.0 75 75
+ 1.3008 1 2 cbr 100 ------- 0 0.0 2.0 75 75
- 1.3008 1 2 cbr 100 ------- 0 0.0 2.0 75 75
r 1.3038 1 2 cbr 100 ------- 0 0.0 2.0 74 74
+ 1.31 0 1 cbr 100 ------- 0 0.0 2.0 81 81
- 1.31 0 1 cbr 100 ------- 0 0.0 2.0 81 81
r 1.3108 0 1 cbr 100 ------- 0 0.0 2.0 76 76
+ 1.3108 1 2 cbr 100 ------- 0 0.0 2.0 76 76
- 1.3108 1 2 cbr 100 ------- 0 0.0 2.0 76 76
r 1.3138 1 2 cbr 100 ------- 0 0.0 2.0 75 75
+ 1.32 0 1 cbr 100 ------- 0 0.0 2.0 82 82
- 1.32 0 1 cbr 100 ------- 0 0.0 2.0 82 82
r 1.3208 0 1 cbr 100 ------- 0 0.0 2.0 77 77
+ 1.3208 1 2 cbr 100 ------- 0 0.0 2.0 77 77
- 1.3208 1 2 cbr 100 ------- 0 0.0 2.0 77 77
r 1.3238 1 2 cbr 100 ------- 0 0.0 2.0 76 76
+ 1.33 0 1 cbr 100 ------- 0 0.0 2.0 83 83
- 1.33 0 1 cbr 100 ------- 0 0.0 2.0 83 83
r 1.3308 0 1 cbr 100 ------- 0 0.0 2.0 78 78
+ 1.3308 1 2 cbr 100 ------- 0 0.0 2.0 78 78
- 1.3308 1 2 cbr 100 ------- 0 0.0 2.0 78 78
r 1.3338 1 2 cbr 100 ------- 0 0.0 2.0 77 77
+ 1.34 0 1 cbr 100 ------- 0 0.0 2.0 84 84
- 1.34 0 1 cbr 100 ------- 0 0.0 2.0 84 84
r 1.3408 0 1 cbr 100 ------- 0 0.0 2.0 79 79
+ 1.3408 1 2 cbr 100 ------- 0 0.0 2.0 79 79
- 1.3408 1 2 cbr 100 ------- 0 0.0 2.0 79 79
r 1.3438 1 2 cbr 100 ------- 0 0.0 2.0 78 78
+ 1.35 0 1 cbr 100 ------- 0 0.0 2.0 85 85
- 1.35 0 1 cbr 100 ------- 0 0.0 2.0 85 85
r 1.3508 0 1 cbr 100 ------- 0 0.0 2.0 80 80
+ 1.3508 1 2 cbr 100 ------- 0 0.0 2.0 80 80
- 1.3508 1 2 cbr 100 ------- 0 0.0 2.0 80 80
r 1.3538 1 2 cbr 100 ------- 0 0.0 2.0 79 79
+ 1.36 0 1 cbr 100 ------- 0 0.0 2.0 86 86
- 1.36 0 1 cbr 100 ------- 0 0.0 2.0 86 86
r 1.3608 0 1 cbr 100 ------- 0 0.0 2.0 81 81
+ 1.3608 1 2 cbr 100 ------- 0 0.0 2.0 81 81
- 1.3608 1 2 cbr 100 ------- 0 0.0 2.0 81 81
r 1.3638 1 2 cbr 100 ------- 0 0.0 2.0 80 80
+ 1.37 0 1 cbr 100 ------- 0 0.0 2.0 87 87
- 1.37 0 1 cbr 100 ------- 0 0.0 2.0 87 87
r 1.3708 0 1 cbr 100 ------- 0 0.0 2.0 82 82
+ 1.3708 1 2 cbr 100 ------- 0 0.0 2.0 82 82
- 1.3708 1 2 cbr 100 ------- 0 0.0 2.0 82 82
r 1.3738 1 2 cbr 100 ------- 0 0.0 2.0 81 81
+ 1.38 0 1 cbr 100 ------- 0 0.0 2.0 88 88
- 1.38 0 1 cbr 100 ------- 0 0.0 2.0 88 88
r 1.3808 0 1 cbr 100 ------- 0 0.0 2.0 83 83
+ 1.3808 1 2 cbr 100 ------- 0 0.0 2.0 83 83
- 1.3808 1 2 cbr 100 ------- 0 0.0 2.0 83 83
r 1.3838 1 2 cbr 100 ------- 0 0.0 2.0 82 82
+ 1.39 0 1 cbr 100 ------- 0 0.0 2.0 89 89
- 1.39 0 1 cbr 100 ------- 0 0.0 2.0 89 89
r 1.3908 0 1 cbr 100 ------- 0 0.0 2.0 84 84
+ 1.3908 1 2 cbr 100 ------- 0 0.0 2.0 84 84
- 1.3908 1 2 cbr 100 ------- 0 0.0 2.0 84 84
r 1.3938 1 2 cbr 100 ------- 0 0.0 2.0 83 83
+ 1.4 0 1 cbr 100 ------- 0 0.0 2.0 90 90
- 1.4 0 1 cbr 100 ------- 0 0.0 2.0 90 90
r 1.4008 0 1 cbr 100 ------- 0 0.0 2.0 85 85
+ 1.4008 1 2 cbr 100 ------- 0 0.0 2.0 85 85
- 1.4008 1 2 cbr 100 ------- 0 0.0 2.0 85 85
r 1.4038 1 2 cbr 100 ------- 0 0.0 2.0 84 84
+ 1.41 0 1 cbr 100 ------- 0 0.0 2.0 91 91
- 1.41 0 1 cbr 100 ------- 0 0.0 2.0 91 91
r 1.4108 0 1 cbr 100 ------- 0 0.0 2.0 86 86
+ 1.4108 1 2 cbr 100 ------- 0 0.0 2.0 86 86
- 1.4108 1 2 cbr 100 ------- 0 0.0 2.0 86 86
r 1.4138 1 2 cbr 100 ------- 0 0.0 2.0 85 85
+ 1.42 0 1 cbr 100 ------- 0 0.0 2.0 92 92
- 1.42 0 1 cbr 100 ------- 0 0.0 2.0 92 92
r 1.4208 0 1 cbr 100 ------- 0 0.0 2.0 87 87
+ 1.4208 1 2 cbr 100 ------- 0 0.0 2.0 87 87
- 1.4208 1 2 cbr 100 ------- 0 0.0 2.0 87 87
r 1.4238 1 2 cbr 100 ------- 0 0.0 2.0 86 86
+ 1.43 0 1 cbr 100 ------- 0 0.0 2.0 93 93
- 1.43 0 1 cbr 100 ------- 0 0.0 2.0 93 93
r 1.4308 0 1 cbr 100 ------- 0 0.0 2.0 88 88
+ 1.4308 1 2 cbr 100 ------- 0 0.0 2.0 88 88
- 1.4308 1 2 cbr 100 ------- 0 0.0 2.0 88 88
r 1.4338 1 2 cbr 100 ------- 0 0.0 2.0 87 87
+ 1.44 0 1 cbr 100 ------- 0 0.0 2.0 94 94
- 1.44 0 1 cbr 100 ------- 0 0.0 2.0 94 94
r 1.4408 0 1 cbr 100 ------- 0 0.0 2.0 89 89
+ 1.4408 1 2 cbr 100 ------- 0 0.0 2.0 89 89
- 1.4408 1 2 cbr 100 ------- 0 0.0 2.0 89 89
r 1.4438 1 2 cbr 100 ------- 0 0.0 2.0 88 88
+ 1.45 0 1 cbr 100 ------- 0 0.0 2.0 95 95
- 1.45 0 1 cbr 100 ------- 0 0.0 2.0 95 95
r 1.4508 0 1 cbr 100 ------- 0 0.0 2.0 90 90
+ 1.4508 1 2 cbr 100 ------- 0 0.0 2.0 90 90
- 1.4508 1 2 cbr 100 ------- 0 0.0 2.0 90 90
r 1.4538 1 2 cbr 100 ------- 0 0.0 2.0 89 89
+ 1.46 0 1 cbr 100 ------- 0 0.0 2.0 96 96
- 1.46 0 1 cbr 100 ------- 0 0.0 2.0 96 96
r 1.4608 0 1 cbr 100 ------- 0 0.0 2.0 91 91
+ 1.4608 1 2 cbr 100 ------- 0 0.0 2.0 91 91
- 1.4608 1 2 cbr 100 ------- 0 0.0 2.0 91 91
r 1.4638 1 2 cbr 100 ------- 0 0.0 2.0 90 90
+ 1.47 0 1 cbr 100 ------- 0 0.0 2.0 97 97
- 1.47 0 1 cbr 100 ------- 0 0.0 2.0 97 97
r 1.4708 0 1 cbr 100 ------- 0 0.0 2.0 92 92
+ 1.4708 1 2 cbr 100 ------- 0 0.0 2.0 92 92
- 1.4708 1 2 cbr 100 ------- 0 0.0 2.0 92 92
r 1.4738 1 2 cbr 100 ------- 0 0.0 2.0 91 91
+ 1.48 0 1 cbr 100 ------- 0 0.0 2.0 98 98
- 1.48 0 1 cbr 100 ------- 0 0.0 2.0 98 98
r 1.4808 0 1 cbr 100 ------- 0 0.0 2.0 93 93
+ 1.4808 1 2 cbr 100 ------- 0 0.0 2.0 93 93
- 1.4808 1 2 cbr 100 ------- 0 0.0 2.0 93 93
r 1.4838 1 2 cbr 100 ------- 0 0.0 2.0 92 92
+ 1.49 0 1 cbr 100 ------- 0 0.0 2.0 99 99
- 1.49 0 1 cbr 100 ------- 0 0.0 2.0 99 99
r 1.4908 0 1 cbr 100 ------- 0 0.0 2.0 94 94
+ 1.4908 1 2 cbr 100 ------- 0 0.0 2.0 94 94
- 1.4908 1 2 cbr 100 ------- 0 0.0 2.0 94 94
r 1.4938 1 2 cbr 100 ------- 0 0.0 2.0 93 93
+ 1.5 0 1 cbr 100 ------- 0 0.0 2.0 100 100
- 1.5 0 1 cbr 100 ------- 0 0.0 2.0 100 100
r 1.5008 0 1 cbr 100 ------- 0 0.0 2.0 95 95
+ 1.5008 1 2 cbr 100 ------- 0 0.0 2.0 95 95
- 1.5008 1 2 cbr 100 ------- 0 0.0 2.0 95 95
r 1.5038 1 2 cbr 100 ------- 0 0.0 2.0 94 94
+ 1.51 0 1 cbr 100 ------- 0 0.0 2.0 101 101
- 1.51 0 1 cbr 100 ------- 0 0.0 2.0 101 101
r 1.5108 0 1 cbr 100 ------- 0 0.0 2.0 96 96
+ 1.5108 1 2 cbr 100 ------- 0 0.0 2.0 96 96
- 1.5108 1 2 cbr 100 ------- 0 0.0 2.0 96 96
r 1.5138 1 2 cbr 100 ------- 0 0.0 2.0 95 95
+ 1.52 0 1 cbr 100 ------- 0 0.0 2.0 102 102
- 1.52 0 1 cbr 100 ------- 0 0.0 2.0 102 102
r 1.5208 0 1 cbr 100 ------- 0 0.0 2.0 97 97
+ 1.5208 1 2 cbr 100 ------- 0 0.0 2.0 97 97
- 1.5208 1 2 cbr 100 ------- 0 0.0 2.0 97 97
r 1.5238 1 2 cbr 100 ------- 0 0.0 2.0 96 96
+ 1.53 0 1 cbr 100 ------- 0 0.0 2.0 103 103
- 1.53 0 1 cbr 100 ------- 0 0.0 2.0 103 103
r 1.5308 0 1 cbr 100 ------- 0 0.0 2.0 98 98
+ 1.5308 1 2 cbr 100 ------- 0 0.0 2.0 98 98
- 1.5308 1 2 cbr 100 ------- 0 0.0 2.0 98 98
r 1.5338 1 2 cbr 100 ------- 0 0.0 2.0 97 97
+ 1.54 0 1 cbr 100 ------- 0 0.0 2.0 104 104
- 1.54 0 1 cbr 100 ------- 0 0.0 2.0 104 104
r 1.5408 0 1 cbr 100 ------- 0 0.0 2.0 99 99
+ 1.5408 1 2 cbr 100 ------- 0 0.0 2.0 99 99
- 1.5408 1 2 cbr 100 ------- 0 0.0 2.0 99 99
r 1.5438 1 2 cbr 100 ------- 0 0.0 2.0 98 98
+ 1.55 0 1 cbr 100 ------- 0 0.0 2.0 105 105
- 1.55 0 1 cbr 100 ------- 0 0.0 2.0 105 105
r 1.5508 0 1 cbr 100 ------- 0 0.0 2.0 100 100
+ 1.5508 1 2 cbr 100 ------- 0 0.0 2.0 100 100
- 1.5508 1 2 cbr 100 ------- 0 0.0 2.0 100 100
r 1.5538 1 2 cbr 100 ------- 0 0.0 2.0 99 99
+ 1.56 0 1 cbr 100 ------- 0 0.0 2.0 106 106
- 1.56 0 1 cbr 100 ------- 0 0.0 2.0 106 106
r 1.5608 0 1 cbr 100 ------- 0 0.0 2.0 101 101
+ 1.5608 1 2 cbr 100 ------- 0 0.0 2.0 101 101
- 1.5608 1 2 cbr 100 ------- 0 0.0 2.0 101 101
r 1.5638 1 2 cbr 100 ------- 0 0.0 2.0 100 100
+ 1.57 0 1 cbr 100 ------- 0 0.0 2.0 107 107
- 1.57 0 1 cbr 100 ------- 0 0.0 2.0 107 107
r 1.5708 0 1 cbr 100 ------- 0 0.0 2.0 102 102
+ 1.5708 1 2 cbr 100 ------- 0 0.0 2.0 102 102
- 1.5708 1 2 cbr 100 ------- 0 0.0 2.0 102 102
r 1.5738 1 2 cbr 100 ------- 0 0.0 2.0 101 101
+ 1.58 0 1 cbr 100 ------- 0 0.0 2.0 108 108
- 1.58 0 1 cbr 100 ------- 0 0.0 2.0 108 108
r 1.5808 0 1 cbr 100 ------- 0 0.0 2.0 103 103
+ 1.5808 1 2 cbr 100 ------- 0 0.0 2.0 103 103
- 1.5808 1 2 cbr 100 ------- 0 0.0 2.0 103 103
r 1.5838 1 2 cbr 100 ------- 0 0.0 2.0 102 102
+ 1.59 0 1 cbr 100 ------- 0 0.0 2.0 109 109
- 1.59 0 1 cbr 100 ------- 0 0.0 2.0 109 109
r 1.5908 0 1 cbr 100 ------- 0 0.0 2.0 104 104
+ 1.5908 1 2 cbr 100 ------- 0 0.0 2.0 104 104
- 1.5908 1 2 cbr 100 ------- 0 0.0 2.0 104 104
r 1.5938 1 2 cbr 100 ------- 0 0.0 2.0 103 103
+ 1.6 0 1 cbr 100 ------- 0 0.0 2.0 110 110
- 1.6 0 1 cbr 100 ------- 0 0.0 2.0 110 110
r 1.6008 0 1 cbr 100 ------- 0 0.0 2.0 105 105
+ 1.6008 1 2 cbr 100 ------- 0 0.0 2.0 105 105
- 1.6008 1 2 cbr 100 ------- 0 0.0 2.0 105 105
r 1.6038 1 2 cbr 100 ------- 0 0.0 2.0 104 104
+ 1.61 0 1 cbr 100 ------- 0 0.0 2.0 111 111
- 1.61 0 1 cbr 100 ------- 0 0.0 2.0 111 111
r 1.6108 0 1 cbr 100 ------- 0 0.0 2.0 106 106
+ 1.6108 1 2 cbr 100 ------- 0 0.0 2.0 106 106
- 1.6108 1 2 cbr 100 ------- 0 0.0 2.0 106 106
r 1.6138 1 2 cbr 100 ------- 0 0.0 2.0 105 105
+ 1.62 0 1 cbr 100 ------- 0 0.0 2.0 112 112
- 1.62 0 1 cbr 100 ------- 0 0.0 2.0 112 112
r 1.6208 0 1 cbr 100 ------- 0 0.0 2.0 107 107
+ 1.6208 1 2 cbr 100 ------- 0 0.0 2.0 107 107
- 1.6208 1 2 cbr 100 ------- 0 0.0 2.0 107 107
r 1.6238 1 2 cbr 100 ------- 0 0.0 2.0 106 106
+ 1.63 0 1 cbr 100 ------- 0 0.0 2.0 113 113
- 1.63 0 1 cbr 100 ------- 0 0.0 2.0 113 113
r 1.6308 0 1 cbr 100 ------- 0 0.0 2.0 108 108
+ 1.6308 1 2 cbr 100 ------- 0 0.0 2.0 108 108
- 1.6308 1 2 cbr 100 ------- 0 0.0 2.0 108 108