+ 0.5 0 1 cbr 5 ------- 0 0.0 2.0 0 0
- 0.5 0 1 cbr 5 ------- 0 0.0 2.0 0 0
+ 0.51 0 1 cbr 5 ------- 0 0.0 2.0 1 1
- 0.51 0 1 cbr 5 ------- 0 0.0 2.0 1 1
+ 0.52 0 1 cbr 5 ------- 0 0.0 2.0 2 2
- 0.52 0 1 cbr 5 ------- 0 0.0 2.0 2 2
+ 0.53 0 1 cbr 5 ------- 0 0.0 2.0 3 3
- 0.53 0 1 cbr 5 ------- 0 0.0 2.0 3 3
+ 0.54 0 1 cbr 5 ------- 0 0.0 2.0 4 4
- 0.54 0 1 cbr 5 ------- 0 0.0 2.0 4 4
+ 0.55 0 1 cbr 5 ------- 0 0.0 2.0 5 5
- 0.55 0 1 cbr 5 ------- 0 0.0 2.0 5 5
r 0.55004 0 1 cbr 5 ------- 0 0.0 2.0 0 0
+ 0.55004 1 2 cbr 5 ------- 0 0.0 2.0 0 0
- 0.55004 1 2 cbr 5 ------- 0 0.0 2.0 0 0
r 0.55544 1 2 cbr 5 ------- 0 0.0 2.0 0 0
+ 0.56 0 1 cbr 5 ------- 0 0.0 2.0 6 6
- 0.56 0 1 cbr 5 ------- 0 0.0 2.0 6 6
r 0.56004 0 1 cbr 5 ------- 0 0.0 2.0 1 1
+ 0.56004 1 2 cbr 5 ------- 0 0.0 2.0 1 1
- 0.56004 1 2 cbr 5 ------- 0 0.0 2.0 1 1
r 0.56544 1 2 cbr 5 ------- 0 0.0 2.0 1 1
+ 0.57 0 1 cbr 5 ------- 0 0.0 2.0 7 7
- 0.57 0 1 cbr 5 ------- 0 0.0 2.0 7 7
r 0.57004 0 1 cbr 5 ------- 0 0.0 2.0 2 2
+ 0.57004 1 2 cbr 5 ------- 0 0.0 2.0 2 2
- 0.57004 1 2 cbr 5 ------- 0 0.0 2.0 2 2
r 0.57544 1 2 cbr 5 ------- 0 0.0 2.0 2 2
+ 0.58 0 1 cbr 5 ------- 0 0.0 2.0 8 8
- 0.58 0 1 cbr 5 ------- 0 0.0 2.0 8 8
r 0.58004 0 1 cbr 5 ------- 0 0.0 2.0 3 3
+ 0.58004 1 2 cbr 5 ------- 0 0.0 2.0 3 3
- 0.58004 1 2 cbr 5 ------- 0 0.0 2.0 3 3
r 0.58544 1 2 cbr 5 ------- 0 0.0 2.0 3 3
+ 0.59 0 1 cbr 5 ------- 0 0.0 2.0 9 9
- 0.59 0 1 cbr 5 ------- 0 0.0 2.0 9 9
r 0.59004 0 1 cbr 5 ------- 0 0.0 2.0 4 4
+ 0.59004 1 2 cbr 5 ------- 0 0.0 2.0 4 4
- 0.59004 1 2 cbr 5 ------- 0 0.0 2.0 4 4
r 0.59544 1 2 cbr 5 ------- 0 0.0 2.0 4 4
+ 0.6 0 1 cbr 5 ------- 0 0.0 2.0 10 10
- 0.6 0 1 cbr 5 ------- 0 0.0 2.0 10 10
r 0.60004 0 1 cbr 5 ------- 0 0.0 2.0 5 5
+ 0.60004 1 2 cbr 5 ------- 0 0.0 2.0 5 5
- 0.60004 1 2 cbr 5 ------- 0 0.0 2.0 5 5
r 0.60544 1 2 cbr 5 ------- 0 0.0 2.0 5 5
+ 0.61 0 1 cbr 5 ------- 0 0.0 2.0 11 11
- 0.61 0 1 cbr 5 ------- 0 0.0 2.0 11 11
r 0.61004 0 1 cbr 5 ------- 0 0.0 2.0 6 6
+ 0.61004 1 2 cbr 5 ------- 0 0.0 2.0 6 6
- 0.61004 1 2 cbr 5 ------- 0 0.0 2.0 6 6
r 0.61544 1 2 cbr 5 ------- 0 0.0 2.0 6 6
+ 0.62 0 1 cbr 5 ------- 0 0.0 2.0 12 12
- 0.62 0 1 cbr 5 ------- 0 0.0 2.0 12 12
r 0.62004 0 1 cbr 5 ------- 0 0.0 2.0 7 7
+ 0.62004 1 2 cbr 5 ------- 0 0.0 2.0 7 7
- 0.62004 1 2 cbr 5 ------- 0 0.0 2.0 7 7
r 0.62544 1 2 cbr 5 ------- 0 0.0 2.0 7 7
+ 0.63 0 1 cbr 5 ------- 0 0.0 2.0 13 13
- 0.63 0 1 cbr 5 ------- 0 0.0 2.0 13 13
r 0.63004 0 1 cbr 5 ------- 0 0.0 2.0 8 8
+ 0.63004 1 2 cbr 5 ------- 0 0.0 2.0 8 8
- 0.63004 1 2 cbr 5 ------- 0 0.0 2.0 8 8
r 0.63544 1 2 cbr 5 ------- 0 0.0 2.0 8 8
+ 0.64 0 1 cbr 5 ------- 0 0.0 2.0 14 14
- 0.64 0 1 cbr 5 ------- 0 0.0 2.0 14 14
r 0.64004 0 1 cbr 5 ------- 0 0.0 2.0 9 9
+ 0.64004 1 2 cbr 5 ------- 0 0.0 2.0 9 9
- 0.64004 1 2 cbr 5 ------- 0 0.0 2.0 9 9
r 0.64544 1 2 cbr 5 ------- 0 0.0 2.0 9 9
+ 0.65 0 1 cbr 5 ------- 0 0.0 2.0 15 15
- 0.65 0 1 cbr 5 ------- 0 0.0 2.0 15 15
r 0.65004 0 1 cbr 5 ------- 0 0.0 2.0 10 10
+ 0.65004 1 2 cbr 5 ------- 0 0.0 2.0 10 10
- 0.65004 1 2 cbr 5 ------- 0 0.0 2.0 10 10
r 0.65544 1 2 cbr 5 ------- 0 0.0 2.0 10 10
+ 0.66 0 1 cbr 5 ------- 0 0.0 2.0 16 16
- 0.66 0 1 cbr 5 ------- 0 0.0 2.0 16 16
r 0.66004 0 1 cbr 5 ------- 0 0.0 2.0 11 11
+ 0.66004 1 2 cbr 5 ------- 0 0.0 2.0 11 11
- 0.66004 1 2 cbr 5 ------- 0 0.0 2.0 11 11
r 0.66544 1 2 cbr 5 ------- 0 0.0 2.0 11 11
+ 0.67 0 1 cbr 5 ------- 0 0.0 2.0 17 17
- 0.67 0 1 cbr 5 ------- 0 0.0 2.0 17 17
r 0.67004 0 1 cbr 5 ------- 0 0.0 2.0 12 12
+ 0.67004 1 2 cbr 5 ------- 0 0.0 2.0 12 12
- 0.67004 1 2 cbr 5 ------- 0 0.0 2.0 12 12
r 0.67544 1 2 cbr 5 ------- 0 0.0 2.0 12 12
+ 0.68 0 1 cbr 5 ------- 0 0.0 2.0 18 18
- 0.68 0 1 cbr 5 ------- 0 0.0 2.0 18 18
r 0.68004 0 1 cbr 5 ------- 0 0.0 2.0 13 13
+ 0.68004 1 2 cbr 5 ------- 0 0.0 2.0 13 13
- 0.68004 1 2 cbr 5 ------- 0 0.0 2.0 13 13
r 0.68544 1 2 cbr 5 ------- 0 0.0 2.0 13 13
+ 0.69 0 1 cbr 5 ------- 0 0.0 2.0 19 19
- 0.69 0 1 cbr 5 ------- 0 0.0 2.0 19 19
r 0.69004 0 1 cbr 5 ------- 0 0.0 2.0 14 14
+ 0.69004 1 2 cbr 5 ------- 0 0.0 2.0 14 14
- 0.69004 1 2 cbr 5 ------- 0 0.0 2.0 14 14
r 0.69544 1 2 cbr 5 ------- 0 0.0 2.0 14 14
+ 0.7 0 1 cbr 5 ------- 0 0.0 2.0 20 20
- 0.7 0 1 cbr 5 ------- 0 0.0 2.0 20 20
r 0.70004 0 1 cbr 5 ------- 0 0.0 2.0 15 15
+ 0.70004 1 2 cbr 5 ------- 0 0.0 2.0 15 15
- 0.70004 1 2 cbr 5 ------- 0 0.0 2.0 15 15
r 0.70544 1 2 cbr 5 ------- 0 0.0 2.0 15 15
+ 0.71 0 1 cbr 5 ------- 0 0.0 2.0 21 21
- 0.71 0 1 cbr 5 ------- 0 0.0 2.0 21 21
r 0.71004 0 1 cbr 5 ------- 0 0.0 2.0 16 16
+ 0.71004 1 2 cbr 5 ------- 0 0.0 2.0 16 16
- 0.71004 1 2 cbr 5 ------- 0 0.0 2.0 16 16
r 0.71544 1 2 cbr 5 ------- 0 0.0 2.0 16 16
+ 0.72 0 1 cbr 5 ------- 0 0.0 2.0 22 22
- 0.72 0 1 cbr 5 ------- 0 0.0 2.0 22 22
r 0.72004 0 1 cbr 5 ------- 0 0.0 2.0 17 17
+ 0.72004 1 2 cbr 5 ------- 0 0.0 2.0 17 17
- 0.72004 1 2 cbr 5 ------- 0 0.0 2.0 17 17
r 0.72544 1 2 cbr 5 ------- 0 0.0 2.0 17 17
+ 0.73 0 1 cbr 5 ------- 0 0.0 2.0 23 23
- 0.73 0 1 cbr 5 ------- 0 0.0 2.0 23 23
r 0.73004 0 1 cbr 5 ------- 0 0.0 2.0 18 18
+ 0.73004 1 2 cbr 5 ------- 0 0.0 2.0 18 18
- 0.73004 1 2 cbr 5 ------- 0 0.0 2.0 18 18
r 0.73544 1 2 cbr 5 ------- 0 0.0 2.0 18 18
+ 0.74 0 1 cbr 5 ------- 0 0.0 2.0 24 24
- 0.74 0 1 cbr 5 ------- 0 0.0 2.0 24 24
r 0.74004 0 1 cbr 5 ------- 0 0.0 2.0 19 19
+ 0.74004 1 2 cbr 5 ------- 0 0.0 2.0 19 19
- 0.74004 1 2 cbr 5 ------- 0 0.0 2.0 19 19
r 0.74544 1 2 cbr 5 ------- 0 0.0 2.0 19 19
+ 0.75 0 1 cbr 5 ------- 0 0.0 2.0 25 25
- 0.75 0 1 cbr 5 ------- 0 0.0 2.0 25 25
r 0.75004 0 1 cbr 5 ------- 0 0.0 2.0 20 20
+ 0.75004 1 2 cbr 5 ------- 0 0.0 2.0 20 20
- 0.75004 1 2 cbr 5 ------- 0 0.0 2.0 20 20
r 0.75544 1 2 cbr 5 ------- 0 0.0 2.0 20 20
+ 0.76 0 1 cbr 5 ------- 0 0.0 2.0 26 26
- 0.76 0 1 cbr 5 ------- 0 0.0 2.0 26 26
r 0.76004 0 1 cbr 5 ------- 0 0.0 2.0 21 21
+ 0.76004 1 2 cbr 5 ------- 0 0.0 2.0 21 21
- 0.76004 1 2 cbr 5 ------- 0 0.0 2.0 21 21
r 0.76544 1 2 cbr 5 ------- 0 0.0 2.0 21 21
+ 0.77 0 1 cbr 5 ------- 0 0.0 2.0 27 27
- 0.77 0 1 cbr 5 ------- 0 0.0 2.0 27 27
r 0.77004 0 1 cbr 5 ------- 0 0.0 2.0 22 22
+ 0.77004 1 2 cbr 5 ------- 0 0.0 2.0 22 22
- 0.77004 1 2 cbr 5 ------- 0 0.0 2.0 22 22
r 0.77544 1 2 cbr 5 ------- 0 0.0 2.0 22 22
+ 0.78 0 1 cbr 5 ------- 0 0.0 2.0 28 28
- 0.78 0 1 cbr 5 ------- 0 0.0 2.0 28 28
r 0.78004 0 1 cbr 5 ------- 0 0.0 2.0 23 23
+ 0.78004 1 2 cbr 5 ------- 0 0.0 2.0 23 23
- 0.78004 1 2 cbr 5 ------- 0 0.0 2.0 23 23
r 0.78544 1 2 cbr 5 ------- 0 0.0 2.0 23 23
+ 0.79 0 1 cbr 5 ------- 0 0.0 2.0 29 29
- 0.79 0 1 cbr 5 ------- 0 0.0 2.0 29 29
r 0.79004 0 1 cbr 5 ------- 0 0.0 2.0 24 24
+ 0.79004 1 2 cbr 5 ------- 0 0.0 2.0 24 24
- 0.79004 1 2 cbr 5 ------- 0 0.0 2.0 24 24
r 0.79544 1 2 cbr 5 ------- 0 0.0 2.0 24 24
+ 0.8 0 1 cbr 5 ------- 0 0.0 2.0 30 30
- 0.8 0 1 cbr 5 ------- 0 0.0 2.0 30 30
r 0.80004 0 1 cbr 5 ------- 0 0.0 2.0 25 25
+ 0.80004 1 2 cbr 5 ------- 0 0.0 2.0 25 25
- 0.80004 1 2 cbr 5 ------- 0 0.0 2.0 25 25
r 0.80544 1 2 cbr 5 ------- 0 0.0 2.0 25 25
+ 0.81 0 1 cbr 5 ------- 0 0.0 2.0 31 31
- 0.81 0 1 cbr 5 ------- 0 0.0 2.0 31 31
r 0.81004 0 1 cbr 5 ------- 0 0.0 2.0 26 26
+ 0.81004 1 2 cbr 5 ------- 0 0.0 2.0 26 26
- 0.81004 1 2 cbr 5 ------- 0 0.0 2.0 26 26
r 0.81544 1 2 cbr 5 ------- 0 0.0 2.0 26 26
+ 0.82 0 1 cbr 5 ------- 0 0.0 2.0 32 32
- 0.82 0 1 cbr 5 ------- 0 0.0 2.0 32 32
r 0.82004 0 1 cbr 5 ------- 0 0.0 2.0 27 27
+ 0.82004 1 2 cbr 5 ------- 0 0.0 2.0 27 27
- 0.82004 1 2 cbr 5 ------- 0 0.0 2.0 27 27
r 0.82544 1 2 cbr 5 ------- 0 0.0 2.0 27 27
+ 0.83 0 1 cbr 5 ------- 0 0.0 2.0 33 33
- 0.83 0 1 cbr 5 ------- 0 0.0 2.0 33 33
r 0.83004 0 1 cbr 5 ------- 0 0.0 2.0 28 28
+ 0.83004 1 2 cbr 5 ------- 0 0.0 2.0 28 28
- 0.83004 1 2 cbr 5 ------- 0 0.0 2.0 28 28
r 0.83544 1 2 cbr 5 ------- 0 0.0 2.0 28 28
+ 0.84 0 1 cbr 5 ------- 0 0.0 2.0 34 34
- 0.84 0 1 cbr 5 ------- 0 0.0 2.0 34 34
r 0.84004 0 1 cbr 5 ------- 0 0.0 2.0 29 29
+ 0.84004 1 2 cbr 5 ------- 0 0.0 2.0 29 29
- 0.84004 1 2 cbr 5 ------- 0 0.0 2.0 29 29
r 0.84544 1 2 cbr 5 ------- 0 0.0 2.0 29 29
+ 0.85 0 1 cbr 5 ------- 0 0.0 2.0 35 35
- 0.85 0 1 cbr 5 ------- 0 0.0 2.0 35 35
r 0.85004 0 1 cbr 5 ------- 0 0.0 2.0 30 30
+ 0.85004 1 2 cbr 5 ------- 0 0.0 2.0 30 30
- 0.85004 1 2 cbr 5 ------- 0 0.0 2.0 30 30
r 0.85544 1 2 cbr 5 ------- 0 0.0 2.0 30 30
+ 0.86 0 1 cbr 5 ------- 0 0.0 2.0 36 36
- 0.86 0 1 cbr 5 ------- 0 0.0 2.0 36 36
r 0.86004 0 1 cbr 5 ------- 0 0.0 2.0 31 31
+ 0.86004 1 2 cbr 5 ------- 0 0.0 2.0 31 31
- 0.86004 1 2 cbr 5 ------- 0 0.0 2.0 31 31
r 0.86544 1 2 cbr 5 ------- 0 0.0 2.0 31 31
+ 0.87 0 1 cbr 5 ------- 0 0.0 2.0 37 37
- 0.87 0 1 cbr 5 ------- 0 0.0 2.0 37 37
r 0.87004 0 1 cbr 5 ------- 0 0.0 2.0 32 32
+ 0.87004 1 2 cbr 5 ------- 0 0.0 2.0 32 32
- 0.87004 1 2 cbr 5 ------- 0 0.0 2.0 32 32
r 0.87544 1 2 cbr 5 ------- 0 0.0 2.0 32 32
+ 0.88 0 1 cbr 5 ------- 0 0.0 2.0 38 38
- 0.88 0 1 cbr 5 ------- 0 0.0 2.0 38 38
r 0.88004 0 1 cbr 5 ------- 0 0.0 2.0 33 33
+ 0.88004 1 2 cbr 5 ------- 0 0.0 2.0 33 33
- 0.88004 1 2 cbr 5 ------- 0 0.0 2.0 33 33
r 0.88544 1 2 cbr 5 ------- 0 0.0 2.0 33 33
+ 0.89 0 1 cbr 5 ------- 0 0.0 2.0 39 39
- 0.89 0 1 cbr 5 ------- 0 0.0 2.0 39 39
r 0.89004 0 1 cbr 5 ------- 0 0.0 2.0 34 34
+ 0.89004 1 2 cbr 5 ------- 0 0.0 2.0 34 34
- 0.89004 1 2 cbr 5 ------- 0 0.0 2.0 34 34
r 0.89544 1 2 cbr 5 ------- 0 0.0 2.0 34 34
+ 0.9 0 1 cbr 5 ------- 0 0.0 2.0 40 40
- 0.9 0 1 cbr 5 ------- 0 0.0 2.0 40 40
r 0.90004 0 1 cbr 5 ------- 0 0.0 2.0 35 35
+ 0.90004 1 2 cbr 5 ------- 0 0.0 2.0 35 35
- 0.90004 1 2 cbr 5 ------- 0 0.0 2.0 35 35
r 0.90544 1 2 cbr 5 ------- 0 0.0 2.0 35 35
+ 0.91 0 1 cbr 5 ------- 0 0.0 2.0 41 41
- 0.91 0 1 cbr 5 ------- 0 0.0 2.0 41 41
r 0.91004 0 1 cbr 5 ------- 0 0.0 2.0 36 36
+ 0.91004 1 2 cbr 5 ------- 0 0.0 2.0 36 36
- 0.91004 1 2 cbr 5 ------- 0 0.0 2.0 36 36
r 0.91544 1 2 cbr 5 ------- 0 0.0 2.0 36 36
+ 0.92 0 1 cbr 5 ------- 0 0.0 2.0 42 42
- 0.92 0 1 cbr 5 ------- 0 0.0 2.0 42 42
r 0.92004 0 1 cbr 5 ------- 0 0.0 2.0 37 37
+ 0.92004 1 2 cbr 5 ------- 0 0.0 2.0 37 37
- 0.92004 1 2 cbr 5 ------- 0 0.0 2.0 37 37
r 0.92544 1 2 cbr 5 ------- 0 0.0 2.0 37 37
+ 0.93 0 1 cbr 5 ------- 0 0.0 2.0 43 43
- 0.93 0 1 cbr 5 ------- 0 0.0 2.0 43 43
r 0.93004 0 1 cbr 5 ------- 0 0.0 2.0 38 38
+ 0.93004 1 2 cbr 5 ------- 0 0.0 2.0 38 38
- 0.93004 1 2 cbr 5 ------- 0 0.0 2.0 38 38
r 0.93544 1 2 cbr 5 ------- 0 0.0 2.0 38 38
+ 0.94 0 1 cbr 5 ------- 0 0.0 2.0 44 44
- 0.94 0 1 cbr 5 ------- 0 0.0 2.0 44 44
r 0.94004 0 1 cbr 5 ------- 0 0.0 2.0 39 39
+ 0.94004 1 2 cbr 5 ------- 0 0.0 2.0 39 39
- 0.94004 1 2 cbr 5 ------- 0 0.0 2.0 39 39
r 0.94544 1 2 cbr 5 ------- 0 0.0 2.0 39 39
+ 0.95 0 1 cbr 5 ------- 0 0.0 2.0 45 45
- 0.95 0 1 cbr 5 ------- 0 0.0 2.0 45 45
r 0.95004 0 1 cbr 5 ------- 0 0.0 2.0 40 40
+ 0.95004 1 2 cbr 5 ------- 0 0.0 2.0 40 40
- 0.95004 1 2 cbr 5 ------- 0 0.0 2.0 40 40
r 0.95544 1 2 cbr 5 ------- 0 0.0 2.0 40 40
+ 0.96 0 1 cbr 5 ------- 0 0.0 2.0 46 46
- 0.96 0 1 cbr 5 ------- 0 0.0 2.0 46 46
r 0.96004 0 1 cbr 5 ------- 0 0.0 2.0 41 41
+ 0.96004 1 2 cbr 5 ------- 0 0.0 2.0 41 41
- 0.96004 1 2 cbr 5 ------- 0 0.0 2.0 41 41
r 0.96544 1 2 cbr 5 ------- 0 0.0 2.0 41 41
+ 0.97 0 1 cbr 5 ------- 0 0.0 2.0 47 47
- 0.97 0 1 cbr 5 ------- 0 0.0 2.0 47 47
r 0.97004 0 1 cbr 5 ------- 0 0.0 2.0 42 42
+ 0.97004 1 2 cbr 5 ------- 0 0.0 2.0 42 42
- 0.97004 1 2 cbr 5 ------- 0 0.0 2.0 42 42
r 0.97544 1 2 cbr 5 ------- 0 0.0 2.0 42 42
+ 0.98 0 1 cbr 5 ------- 0 0.0 2.0 48 48
- 0.98 0 1 cbr 5 ------- 0 0.0 2.0 48 48
r 0.98004 0 1 cbr 5 ------- 0 0.0 2.0 43 43
+ 0.98004 1 2 cbr 5 ------- 0 0.0 2.0 43 43
- 0.98004 1 2 cbr 5 ------- 0 0.0 2.0 43 43
r 0.98544 1 2 cbr 5 ------- 0 0.0 2.0 43 43
+ 0.99 0 1 cbr 5 ------- 0 0.0 2.0 49 49
- 0.99 0 1 cbr 5 ------- 0 0.0 2.0 49 49
r 0.99004 0 1 cbr 5 ------- 0 0.0 2.0 44 44
+ 0.99004 1 2 cbr 5 ------- 0 0.0 2.0 44 44
- 0.99004 1 2 cbr 5 ------- 0 0.0 2.0 44 44
r 0.99544 1 2 cbr 5 ------- 0 0.0 2.0 44 44
+ 1 0 1 cbr 5 ------- 0 0.0 2.0 50 50
- 1 0 1 cbr 5 ------- 0 0.0 2.0 50 50
r 1.00004 0 1 cbr 5 ------- 0 0.0 2.0 45 45
+ 1.00004 1 2 cbr 5 ------- 0 0.0 2.0 45 45
- 1.00004 1 2 cbr 5 ------- 0 0.0 2.0 45 45
r 1.00544 1 2 cbr 5 ------- 0 0.0 2.0 45 45
+ 1.01 0 1 cbr 5 ------- 0 0.0 2.0 51 51
- 1.01 0 1 cbr 5 ------- 0 0.0 2.0 51 51
r 1.01004 0 1 cbr 5 ------- 0 0.0 2.0 46 46
+ 1.01004 1 2 cbr 5 ------- 0 0.0 2.0 46 46
- 1.01004 1 2 cbr 5 ------- 0 0.0 2.0 46 46
r 1.01544 1 2 cbr 5 ------- 0 0.0 2.0 46 46
+ 1.02 0 1 cbr 5 ------- 0 0.0 2.0 52 52
- 1.02 0 1 cbr 5 ------- 0 0.0 2.0 52 52
r 1.02004 0 1 cbr 5 ------- 0 0.0 2.0 47 47
+ 1.02004 1 2 cbr 5 ------- 0 0.0 2.0 47 47
- 1.02004 1 2 cbr 5 ------- 0 0.0 2.0 47 47
r 1.02544 1 2 cbr 5 ------- 0 0.0 2.0 47 47
+ 1.03 0 1 cbr 5 ------- 0 0.0 2.0 53 53
- 1.03 0 1 cbr 5 ------- 0 0.0 2.0 53 53
r 1.03004 0 1 cbr 5 ------- 0 0.0 2.0 48 48
+ 1.03004 1 2 cbr 5 ------- 0 0.0 2.0 48 48
- 1.03004 1 2 cbr 5 ------- 0 0.0 2.0 48 48
r 1.03544 1 2 cbr 5 ------- 0 0.0 2.0 48 48
+ 1.04 0 1 cbr 5 ------- 0 0.0 2.0 54 54
- 1.04 0 1 cbr 5 ------- 0 0.0 2.0 54 54
r 1.04004 0 1 cbr 5 ------- 0 0.0 2.0 49 49
+ 1.04004 1 2 cbr 5 ------- 0 0.0 2.0 49 49
- 1.04004 1 2 cbr 5 ------- 0 0.0 2.0 49 49
r 1.04544 1 2 cbr 5 ------- 0 0.0 2.0 49 49
+ 1.05 0 1 cbr 5 ------- 0 0.0 2.0 55 55
- 1.05 0 1 cbr 5 ------- 0 0.0 2.0 55 55
r 1.05004 0 1 cbr 5 ------- 0 0.0 2.0 50 50
+ 1.05004 1 2 cbr 5 ------- 0 0.0 2.0 50 50
- 1.05004 1 2 cbr 5 ------- 0 0.0 2.0 50 50
r 1.05544 1 2 cbr 5 ------- 0 0.0 2.0 50 50
+ 1.06 0 1 cbr 5 ------- 0 0.0 2.0 56 56
- 1.06 0 1 cbr 5 ------- 0 0.0 2.0 56 56
r 1.06004 0 1 cbr 5 ------- 0 0.0 2.0 51 51
+ 1.06004 1 2 cbr 5 ------- 0 0.0 2.0 51 51
- 1.06004 1 2 cbr 5 ------- 0 0.0 2.0 51 51
r 1.06544 1 2 cbr 5 ------- 0 0.0 2.0 51 51
+ 1.07 0 1 cbr 5 ------- 0 0.0 2.0 57 57
- 1.07 0 1 cbr 5 ------- 0 0.0 2.0 57 57
r 1.07004 0 1 cbr 5 ------- 0 0.0 2.0 52 52
+ 1.07004 1 2 cbr 5 ------- 0 0.0 2.0 52 52
- 1.07004 1 2 cbr 5 ------- 0 0.0 2.0 52 52
r 1.07544 1 2 cbr 5 ------- 0 0.0 2.0 52 52
+ 1.08 0 1 cbr 5 ------- 0 0.0 2.0 58 58
- 1.08 0 1 cbr 5 ------- 0 0.0 2.0 58 58
r 1.08004 0 1 cbr 5 ------- 0 0.0 2.0 53 53
+ 1.08004 1 2 cbr 5 ------- 0 0.0 2.0 53 53
- 1.08004 1 2 cbr 5 ------- 0 0.0 2.0 53 53
r 1.08544 1 2 cbr 5 ------- 0 0.0 2.0 53 53
+ 1.09 0 1 cbr 5 ------- 0 0.0 2.0 59 59
- 1.09 0 1 cbr 5 ------- 0 0.0 2.0 59 59
r 1.09004 0 1 cbr 5 ------- 0 0.0 2.0 54 54
+ 1.09004 1 2 cbr 5 ------- 0 0.0 2.0 54 54
- 1.09004 1 2 cbr 5 ------- 0 0.0 2.0 54 54
r 1.09544 1 2 cbr 5 ------- 0 0.0 2.0 54 54
+ 1.1 0 1 cbr 5 ------- 0 0.0 2.0 60 60
- 1.1 0 1 cbr 5 ------- 0 0.0 2.0 60 60
r 1.10004 0 1 cbr 5 ------- 0 0.0 2.0 55 55
+ 1.10004 1 2 cbr 5 ------- 0 0.0 2.0 55 55
- 1.10004 1 2 cbr 5 ------- 0 0.0 2.0 55 55
r 1.10544 1 2 cbr 5 ------- 0 0.0 2.0 55 55
+ 1.11 0 1 cbr 5 ------- 0 0.0 2.0 61 61
- 1.11 0 1 cbr 5 ------- 0 0.0 2.0 61 61
r 1.11004 0 1 cbr 5 ------- 0 0.0 2.0 56 56
+ 1.11004 1 2 cbr 5 ------- 0 0.0 2.0 56 56
- 1.11004 1 2 cbr 5 ------- 0 0.0 2.0 56 56
r 1.11544 1 2 cbr 5 ------- 0 0.0 2.0 56 56
+ 1.12 0 1 cbr 5 ------- 0 0.0 2.0 62 62
- 1.12 0 1 cbr 5 ------- 0 0.0 2.0 62 62
r 1.12004 0 1 cbr 5 ------- 0 0.0 2.0 57 57
+ 1.12004 1 2 cbr 5 ------- 0 0.0 2.0 57 57
- 1.12004 1 2 cbr 5 ------- 0 0.0 2.0 57 57
r 1.12544 1 2 cbr 5 ------- 0 0.0 2.0 57 57
+ 1.13 0 1 cbr 5 ------- 0 0.0 2.0 63 63
- 1.13 0 1 cbr 5 ------- 0 0.0 2.0 63 63
r 1.13004 0 1 cbr 5 ------- 0 0.0 2.0 58 58
+ 1.13004 1 2 cbr 5 ------- 0 0.0 2.0 58 58
- 1.13004 1 2 cbr 5 ------- 0 0.0 2.0 58 58
r 1.13544 1 2 cbr 5 ------- 0 0.0 2.0 58 58
+ 1.14 0 1 cbr 5 ------- 0 0.0 2.0 64 64
- 1.14 0 1 cbr 5 ------- 0 0.0 2.0 64 64
r 1.14004 0 1 cbr 5 ------- 0 0.0 2.0 59 59
+ 1.14004 1 2 cbr 5 ------- 0 0.0 2.0 59 59
- 1.14004 1 2 cbr 5 ------- 0 0.0 2.0 59 59
r 1.14544 1 2 cbr 5 ------- 0 0.0 2.0 59 59
+ 1.15 0 1 cbr 5 ------- 0 0.0 2.0 65 65
- 1.15 0 1 cbr 5 ------- 0 0.0 2.0 65 65
r 1.15004 0 1 cbr 5 ------- 0 0.0 2.0 60 60
+ 1.15004 1 2 cbr 5 ------- 0 0.0 2.0 60 60
- 1.15004 1 2 cbr 5 ------- 0 0.0 2.0 60 60
r 1.15544 1 2 cbr 5 ------- 0 0.0 2.0 60 60
+ 1.16 0 1 cbr 5 ------- 0 0.0 2.0 66 66
- 1.16 0 1 cbr 5 ------- 0 0.0 2.0 66 66
r 1.16004 0 1 cbr 5 ------- 0 0.0 2.0 61 61
+ 1.16004 1 2 cbr 5 ------- 0 0.0 2.0 61 61
- 1.16004 1 2 cbr 5 ------- 0 0.0 2.0 61 61
r 1.16544 1 2 cbr 5 ------- 0 0.0 2.0 61 61
+ 1.17 0 1 cbr 5 ------- 0 0.0 2.0 67 67
- 1.17 0 1 cbr 5 ------- 0 0.0 2.0 67 67
r 1.17004 0 1 cbr 5 ------- 0 0.0 2.0 62 62
+ 1.17004 1 2 cbr 5 ------- 0 0.0 2.0 62 62
- 1.17004 1 2 cbr 5 ------- 0 0.0 2.0 62 62
r 1.17544 1 2 cbr 5 ------- 0 0.0 2.0 62 62
+ 1.18 0 1 cbr 5 ------- 0 0.0 2.0 68 68
- 1.18 0 1 cbr 5 ------- 0 0.0 2.0 68 68
r 1.18004 0 1 cbr 5 ------- 0 0.0 2.0 63 63
+ 1.18004 1 2 cbr 5 ------- 0 0.0 2.0 63 63
- 1.18004 1 2 cbr 5 ------- 0 0.0 2.0 63 63
r 1.18544 1 2 cbr 5 ------- 0 0.0 2.0 63 63
+ 1.19 0 1 cbr 5 ------- 0 0.0 2.0 69 69
- 1.19 0 1 cbr 5 ------- 0 0.0 2.0 69 69
r 1.19004 0 1 cbr 5 ------- 0 0.0 2.0 64 64
+ 1.19004 1 2 cbr 5 ------- 0 0.0 2.0 64 64
- 1.19004 1 2 cbr 5 ------- 0 0.0 2.0 64 64
r 1.19544 1 2 cbr 5 ------- 0 0.0 2.0 64 64
+ 1.2 0 1 cbr 5 ------- 0 0.0 2.0 70 70
- 1.2 0 1 cbr 5 ------- 0 0.0 2.0 70 70
r 1.20004 0 1 cbr 5 ------- 0 0.0 2.0 65 65
+ 1.20004 1 2 cbr 5 ------- 0 0.0 2.0 65 65
- 1.20004 1 2 cbr 5 ------- 0 0.0 2.0 65 65
r 1.20544 1 2 cbr 5 ------- 0 0.0 2.0 65 65
+ 1.21 0 1 cbr 5 ------- 0 0.0 2.0 71 71
- 1.21 0 1 cbr 5 ------- 0 0.0 2.0 71 71
r 1.21004 0 1 cbr 5 ------- 0 0.0 2.0 66 66
+ 1.21004 1 2 cbr 5 ------- 0 0.0 2.0 66 66
- 1.21004 1 2 cbr 5 ------- 0 0.0 2.0 66 66
r 1.21544 1 2 cbr 5 ------- 0 0.0 2.0 66 66
+ 1.22 0 1 cbr 5 ------- 0 0.0 2.0 72 72
- 1.22 0 1 cbr 5 ------- 0 0.0 2.0 72 72
r 1.22004 0 1 cbr 5 ------- 0 0.0 2.0 67 67
+ 1.22004 1 2 cbr 5 ------- 0 0.0 2.0 67 67
- 1.22004 1 2 cbr 5 ------- 0 0.0 2.0 67 67
r 1.22544 1 2 cbr 5 ------- 0 0.0 2.0 67 67
+ 1.23 0 1 cbr 5 ------- 0 0.0 2.0 73 73
- 1.23 0 1 cbr 5 ------- 0 0.0 2.0 73 73
r 1.23004 0 1 cbr 5 ------- 0 0.0 2.0 68 68
+ 1.23004 1 2 cbr 5 ------- 0 0.0 2.0 68 68
- 1.23004 1 2 cbr 5 ------- 0 0.0 2.0 68 68
r 1.23544 1 2 cbr 5 ------- 0 0.0 2.0 68 68
+ 1.24 0 1 cbr 5 ------- 0 0.0 2.0 74 74
- 1.24 0 1 cbr 5 ------- 0 0.0 2.0 74 74
r 1.24004 0 1 cbr 5 ------- 0 0.0 2.0 69 69
+ 1.24004 1 2 cbr 5 ------- 0 0.0 2.0 69 69
- 1.24004 1 2 cbr 5 ------- 0 0.0 2.0 69 69
r 1.24544 1 2 cbr 5 ------- 0 0.0 2.0 69 69
+ 1.25 0 1 cbr 5 ------- 0 0.0 2.0 75 75
- 1.25 0 1 cbr 5 ------- 0 0.0 2.0 75 75
r 1.25004 0 1 cbr 5 ------- 0 0.0 2.0 70 70
+ 1.25004 1 2 cbr 5 ------- 0 0.0 2.0 70 70
- 1.25004 1 2 cbr 5 ------- 0 0.0 2.0 70 70
r 1.25544 1 2 cbr 5 ------- 0 0.0 2.0 70 70
+ 1.26 0 1 cbr 5 ------- 0 0.0 2.0 76 76
- 1.26 0 1 cbr 5 ------- 0 0.0 2.0 76 76
r 1.26004 0 1 cbr 5 ------- 0 0.0 2.0 71 71
+ 1.26004 1 2 cbr 5 ------- 0 0.0 2.0 71 71
- 1.26004 1 2 cbr 5 ------- 0 0.0 2.0 71 71
r 1.26544 1 2 cbr 5 ------- 0 0.0 2.0 71 71
+ 1.27 0 1 cbr 5 ------- 0 0.0 2.0 77 77
- 1.27 0 1 cbr 5 ------- 0 0.0 2.0 77 77
r 1.27004 0 1 cbr 5 ------- 0 0.0 2.0 72 72
+ 1.27004 1 2 cbr 5 ------- 0 0.0 2.0 72 72
- 1.27004 1 2 cbr 5 ------- 0 0.0 2.0 72 72
r 1.27544 1 2 cbr 5 ------- 0 0.0 2.0 72 72
+ 1.28 0 1 cbr 5 ------- 0 0.0 2.0 78 78
- 1.28 0 1 cbr 5 ------- 0 0.0 2.0 78 78
r 1.28004 0 1 cbr 5 ------- 0 0.0 2.0 73 73
+ 1.28004 1 2 cbr 5 ------- 0 0.0 2.0 73 73
- 1.28004 1 2 cbr 5 ------- 0 0.0 2.0 73 73
r 1.28544 1 2 cbr 5 ------- 0 0.0 2.0 73 73
+ 1.29 0 1 cbr 5 ------- 0 0.0 2.0 79 79
- 1.29 0 1 cbr 5 ------- 0 0.0 2.0 79 79
r 1.29004 0 1 cbr 5 ------- 0 0.0 2.0 74 74
+ 1.29004 1 2 cbr 5 ------- 0 0.0 2.0 74 74
- 1.29004 1 2 cbr 5 ------- 0 0.0 2.0 74 74
r 1.29544 1 2 cbr 5 ------- 0 0.0 2.0 74 74
+ 1.3 0 1 cbr 5 ------- 0 0.0 2.0 80 80
- 1.3 0 1 cbr 5 ------- 0 0.0 2.0 80 80
r 1.30004 0 1 cbr 5 ------- 0 0.0 2.0 75 75
+ 1.30004 1 2 cbr 5 ------- 0 0.0 2.0 75 75
- 1.30004 1 2 cbr 5 ------- 0 0.0 2.0 75 75
r 1.30544 1 2 cbr 5 ------- 0 0.0 2.0 75 75
+ 1.31 0 1 cbr 5 ------- 0 0.0 2.0 81 81
- 1.31 0 1 cbr 5 ------- 0 0.0 2.0 81 81
r 1.31004 0 1 cbr 5 ------- 0 0.0 2.0 76 76
+ 1.31004 1 2 cbr 5 ------- 0 0.0 2.0 76 76
- 1.31004 1 2 cbr 5 ------- 0 0.0 2.0 76 76
r 1.31544 1 2 cbr 5 ------- 0 0.0 2.0 76 76
+ 1.32 0 1 cbr 5 ------- 0 0.0 2.0 82 82
- 1.32 0 1 cbr 5 ------- 0 0.0 2.0 82 82
r 1.32004 0 1 cbr 5 ------- 0 0.0 2.0 77 77
+ 1.32004 1 2 cbr 5 ------- 0 0.0 2.0 77 77
- 1.32004 1 2 cbr 5 ------- 0 0.0 2.0 77 77
r 1.32544 1 2 cbr 5 ------- 0 0.0 2.0 77 77
+ 1.33 0 1 cbr 5 ------- 0 0.0 2.0 83 83
- 1.33 0 1 cbr 5 ------- 0 0.0 2.0 83 83
r 1.33004 0 1 cbr 5 ------- 0 0.0 2.0 78 78
+ 1.33004 1 2 cbr 5 ------- 0 0.0 2.0 78 78
- 1.33004 1 2 cbr 5 ------- 0 0.0 2.0 78 78
r 1.33544 1 2 cbr 5 ------- 0 0.0 2.0 78 78
+ 1.34 0 1 cbr 5 ------- 0 0.0 2.0 84 84
- 1.34 0 1 cbr 5 ------- 0 0.0 2.0 84 84
r 1.34004 0 1 cbr 5 ------- 0 0.0 2.0 79 79
+ 1.34004 1 2 cbr 5 ------- 0 0.0 2.0 79 79
- 1.34004 1 2 cbr 5 ------- 0 0.0 2.0 79 79
r 1.34544 1 2 cbr 5 ------- 0 0.0 2.0 79 79
+ 1.35 0 1 cbr 5 ------- 0 0.0 2.0 85 85
- 1.35 0 1 cbr 5 ------- 0 0.0 2.0 85 85
r 1.35004 0 1 cbr 5 ------- 0 0.0 2.0 80 80
+ 1.35004 1 2 cbr 5 ------- 0 0.0 2.0 80 80
- 1.35004 1 2 cbr 5 ------- 0 0.0 2.0 80 80
r 1.35544 1 2 cbr 5 ------- 0 0.0 2.0 80 80
+ 1.36 0 1 cbr 5 ------- 0 0.0 2.0 86 86
- 1.36 0 1 cbr 5 ------- 0 0.0 2.0 86 86
r 1.36004 0 1 cbr 5 ------- 0 0.0 2.0 81 81
+ 1.36004 1 2 cbr 5 ------- 0 0.0 2.0 81 81
- 1.36004 1 2 cbr 5 ------- 0 0.0 2.0 81 81
r 1.36544 1 2 cbr 5 ------- 0 0.0 2.0 81 81
+ 1.37 0 1 cbr 5 ------- 0 0.0 2.0 87 87
- 1.37 0 1 cbr 5 ------- 0 0.0 2.0 87 87
r 1.37004 0 1 cbr 5 ------- 0 0.0 2.0 82 82
+ 1.37004 1 2 cbr 5 ------- 0 0.0 2.0 82 82
- 1.37004 1 2 cbr 5 ------- 0 0.0 2.0 82 82
r 1.37544 1 2 cbr 5 ------- 0 0.0 2.0 82 82
+ 1.38 0 1 cbr 5 ------- 0 0.0 2.0 88 88
- 1.38 0 1 cbr 5 ------- 0 0.0 2.0 88 88
r 1.38004 0 1 cbr 5 ------- 0 0.0 2.0 83 83
+ 1.38004 1 2 cbr 5 ------- 0 0.0 2.0 83 83
- 1.38004 1 2 cbr 5 ------- 0 0.0 2.0 83 83
r 1.38544 1 2 cbr 5 ------- 0 0.0 2.0 83 83
+ 1.39 0 1 cbr 5 ------- 0 0.0 2.0 89 89
- 1.39 0 1 cbr 5 ------- 0 0.0 2.0 89 89
r 1.39004 0 1 cbr 5 ------- 0 0.0 2.0 84 84
+ 1.39004 1 2 cbr 5 ------- 0 0.0 2.0 84 84
- 1.39004 1 2 cbr 5 ------- 0 0.0 2.0 84 84
r 1.39544 1 2 cbr 5 ------- 0 0.0 2.0 84 84
+ 1.4 0 1 cbr 5 ------- 0 0.0 2.0 90 90
- 1.4 0 1 cbr 5 ------- 0 0.0 2.0 90 90
r 1.40004 0 1 cbr 5 ------- 0 0.0 2.0 85 85
+ 1.40004 1 2 cbr 5 ------- 0 0.0 2.0 85 85
- 1.40004 1 2 cbr 5 ------- 0 0.0 2.0 85 85
r 1.40544 1 2 cbr 5 ------- 0 0.0 2.0 85 85
+ 1.41 0 1 cbr 5 ------- 0 0.0 2.0 91 91
- 1.41 0 1 cbr 5 ------- 0 0.0 2.0 91 91
r 1.41004 0 1 cbr 5 ------- 0 0.0 2.0 86 86
+ 1.41004 1 2 cbr 5 ------- 0 0.0 2.0 86 86
- 1.41004 1 2 cbr 5 ------- 0 0.0 2.0 86 86
r 1.41544 1 2 cbr 5 ------- 0 0.0 2.0 86 86
+ 1.42 0 1 cbr 5 ------- 0 0.0 2.0 92 92
- 1.42 0 1 cbr 5 ------- 0 0.0 2.0 92 92
r 1.42004 0 1 cbr 5 ------- 0 0.0 2.0 87 87
+ 1.42004 1 2 cbr 5 ------- 0 0.0 2.0 87 87
- 1.42004 1 2 cbr 5 ------- 0 0.0 2.0 87 87
r 1.42544 1 2 cbr 5 ------- 0 0.0 2.0 87 87
+ 1.43 0 1 cbr 5 ------- 0 0.0 2.0 93 93
- 1.43 0 1 cbr 5 ------- 0 0.0 2.0 93 93
r 1.43004 0 1 cbr 5 ------- 0 0.0 2.0 88 88
+ 1.43004 1 2 cbr 5 ------- 0 0.0 2.0 88 88
- 1.43004 1 2 cbr 5 ------- 0 0.0 2.0 88 88
r 1.43544 1 2 cbr 5 ------- 0 0.0 2.0 88 88
+ 1.44 0 1 cbr 5 ------- 0 0.0 2.0 94 94
- 1.44 0 1 cbr 5 ------- 0 0.0 2.0 94 94
r 1.44004 0 1 cbr 5 ------- 0 0.0 2.0 89 89
+ 1.44004 1 2 cbr 5 ------- 0 0.0 2.0 89 89
- 1.44004 1 2 cbr 5 ------- 0 0.0 2.0 89 89
r 1.44544 1 2 cbr 5 ------- 0 0.0 2.0 89 89
+ 1.45 0 1 cbr 5 ------- 0 0.0 2.0 95 95
- 1.45 0 1 cbr 5 ------- 0 0.0 2.0 95 95
r 1.45004 0 1 cbr 5 ------- 0 0.0 2.0 90 90
+ 1.45004 1 2 cbr 5 ------- 0 0.0 2.0 90 90
- 1.45004 1 2 cbr 5 ------- 0 0.0 2.0 90 90
r 1.45544 1 2 cbr 5 ------- 0 0.0 2.0 90 90
+ 1.46 0 1 cbr 5 ------- 0 0.0 2.0 96 96
- 1.46 0 1 cbr 5 ------- 0 0.0 2.0 96 96
r 1.46004 0 1 cbr 5 ------- 0 0.0 2.0 91 91
+ 1.46004 1 2 cbr 5 ------- 0 0.0 2.0 91 91
- 1.46004 1 2 cbr 5 ------- 0 0.0 2.0 91 91
r 1.46544 1 2 cbr 5 ------- 0 0.0 2.0 91 91
+ 1.47 0 1 cbr 5 ------- 0 0.0 2.0 97 97
- 1.47 0 1 cbr 5 ------- 0 0.0 2.0 97 97
r 1.47004 0 1 cbr 5 ------- 0 0.0 2.0 92 92
+ 1.47004 1 2 cbr 5 ------- 0 0.0 2.0 92 92
- 1.47004 1 2 cbr 5 ------- 0 0.0 2.0 92 92
r 1.47544 1 2 cbr 5 ------- 0 0.0 2.0 92 92
+ 1.48 0 1 cbr 5 ------- 0 0.0 2.0 98 98
- 1.48 0 1 cbr 5 ------- 0 0.0 2.0 98 98
r 1.48004 0 1 cbr 5 ------- 0 0.0 2.0 93 93
+ 1.48004 1 2 cbr 5 ------- 0 0.0 2.0 93 93
- 1.48004 1 2 cbr 5 ------- 0 0.0 2.0 93 93
r 1.48544 1 2 cbr 5 ------- 0 0.0 2.0 93 93
+ 1.49 0 1 cbr 5 ------- 0 0.0 2.0 99 99
- 1.49 0 1 cbr 5 ------- 0 0.0 2.0 99 99
r 1.49004 0 1 cbr 5 ------- 0 0.0 2.0 94 94
+ 1.49004 1 2 cbr 5 ------- 0 0.0 2.0 94 94
- 1.49004 1 2 cbr 5 ------- 0 0.0 2.0 94 94
r 1.49544 1 2 cbr 5 ------- 0 0.0 2.0 94 94
+ 1.5 0 1 cbr 5 ------- 0 0.0 2.0 100 100
- 1.5 0 1 cbr 5 ------- 0 0.0 2.0 100 100
r 1.50004 0 1 cbr 5 ------- 0 0.0 2.0 95 95
+ 1.50004 1 2 cbr 5 ------- 0 0.0 2.0 95 95
- 1.50004 1 2 cbr 5 ------- 0 0.0 2.0 95 95
r 1.50544 1 2 cbr 5 ------- 0 0.0 2.0 95 95
+ 1.51 0 1 cbr 5 ------- 0 0.0 2.0 101 101
- 1.51 0 1 cbr 5 ------- 0 0.0 2.0 101 101
r 1.51004 0 1 cbr 5 ------- 0 0.0 2.0 96 96
+ 1.51004 1 2 cbr 5 ------- 0 0.0 2.0 96 96
- 1.51004 1 2 cbr 5 ------- 0 0.0 2.0 96 96
r 1.51544 1 2 cbr 5 ------- 0 0.0 2.0 96 96
+ 1.52 0 1 cbr 5 ------- 0 0.0 2.0 102 102
- 1.52 0 1 cbr 5 ------- 0 0.0 2.0 102 102
r 1.52004 0 1 cbr 5 ------- 0 0.0 2.0 97 97
+ 1.52004 1 2 cbr 5 ------- 0 0.0 2.0 97 97
- 1.52004 1 2 cbr 5 ------- 0 0.0 2.0 97 97
r 1.52544 1 2 cbr 5 ------- 0 0.0 2.0 97 97
+ 1.53 0 1 cbr 5 ------- 0 0.0 2.0 103 103
- 1.53 0 1 cbr 5 ------- 0 0.0 2.0 103 103
r 1.53004 0 1 cbr 5 ------- 0 0.0 2.0 98 98
+ 1.53004 1 2 cbr 5 ------- 0 0.0 2.0 98 98
- 1.53004 1 2 cbr 5 ------- 0 0.0 2.0 98 98
r 1.53544 1 2 cbr 5 ------- 0 0.0 2.0 98 98
+ 1.54 0 1 cbr 5 ------- 0 0.0 2.0 104 104
- 1.54 0 1 cbr 5 ------- 0 0.0 2.0 104 104
r 1.54004 0 1 cbr 5 ------- 0 0.0 2.0 99 99
+ 1.54004 1 2 cbr 5 ------- 0 0.0 2.0 99 99
- 1.54004 1 2 cbr 5 ------- 0 0.0 2.0 99 99
r 1.54544 1 2 cbr 5 ------- 0 0.0 2.0 99 99
+ 1.55 0 1 cbr 5 ------- 0 0.0 2.0 105 105
- 1.55 0 1 cbr 5 ------- 0 0.0 2.0 105 105
r 1.55004 0 1 cbr 5 ------- 0 0.0 2.0 100 100
+ 1.55004 1 2 cbr 5 ------- 0 0.0 2.0 100 100
- 1.55004 1 2 cbr 5 ------- 0 0.0 2.0 100 100
r 1.55544 1 2 cbr 5 ------- 0 0.0 2.0 100 100
+ 1.56 0 1 cbr 5 ------- 0 0.0 2.0 106 106
- 1.56 0 1 cbr 5 ------- 0 0.0 2.0 106 106
r 1.56004 0 1 cbr 5 ------- 0 0.0 2.0 101 101
+ 1.56004 1 2 cbr 5 ------- 0 0.0 2.0 101 101
- 1.56004 1 2 cbr 5 ------- 0 0.0 2.0 101 101
r 1.56544 1 2 cbr 5 ------- 0 0.0 2.0 101 101
+ 1.57 0 1 cbr 5 ------- 0 0.0 2.0 107 107
- 1.57 0 1 cbr 5 ------- 0 0.0 2.0 107 107
r 1.57004 0 1 cbr 5 ------- 0 0.0 2.0 102 102
+ 1.57004 1 2 cbr 5 ------- 0 0.0 2.0 102 102
- 1.57004 1 2 cbr 5 ------- 0 0.0 2.0 102 102
r 1.57544 1 2 cbr 5 ------- 0 0.0 2.0 102 102
+ 1.58 0 1 cbr 5 ------- 0 0.0 2.0 108 108
- 1.58 0 1 cbr 5 ------- 0 0.0 2.0 108 108
r 1.58004 0 1 cbr 5 ------- 0 0.0 2.0 103 103
+ 1.58004 1 2 cbr 5 ------- 0 0.0 2.0 103 103
- 1.58004 1 2 cbr 5 ------- 0 0.0 2.0 103 103
r 1.58544 1 2 cbr 5 ------- 0 0.0 2.0 103 103
+ 1.59 0 1 cbr 5 ------- 0 0.0 2.0 109 109
- 1.59 0 1 cbr 5 ------- 0 0.0 2.0 109 109
r 1.59004 0 1 cbr 5 ------- 0 0.0 2.0 104 104
+ 1.59004 1 2 cbr 5 ------- 0 0.0 2.0 104 104
- 1.59004 1 2 cbr 5 ------- 0 0.0 2.0 104 104
r 1.59544 1 2 cbr 5 ------- 0 0.0 2.0 104 104
+ 1.6 0 1 cbr 5 ------- 0 0.0 2.0 110 110
- 1.6 0 1 cbr 5 ------- 0 0.0 2.0 110 110
r 1.60004 0 1 cbr 5 ------- 0 0.0 2.0 105 105
+ 1.60004 1 2 cbr 5 ------- 0 0.0 2.0 105 105
- 1.60004 1 2 cbr 5 ------- 0 0.0 2.0 105 105
r 1.60544 1 2 cbr 5 ------- 0 0.0 2.0 105 105
+ 1.61 0 1 cbr 5 ------- 0 0.0 2.0 111 111
- 1.61 0 1 cbr 5 ------- 0 0.0 2.0 111 111
r 1.61004 0 1 cbr 5 ------- 0 0.0 2.0 106 106
+ 1.61004 1 2 cbr 5 ------- 0 0.0 2.0 106 106
- 1.61004 1 2 cbr 5 ------- 0 0.0 2.0 106 106
r 1.61544 1 2 cbr 5 ------- 0 0.0 2.0 106 106
+ 1.62 0 1 cbr 5 ------- 0 0.0 2.0 112 112
- 1.62 0 1 cbr 5 ------- 0 0.0 2.0 112 112
r 1.62004 0 1 cbr 5 ------- 0 0.0 2.0 107 107
+ 1.62004 1 2 cbr 5 ------- 0 0.0 2.0 107 107
- 1.62004 1 2 cbr 5 ------- 0 0.0 2.0 107 107
r 1.62544 1 2 cbr 5 ------- 0 0.0 2.0 107 107
+ 1.63 0 1 cbr 5 ------- 0 0.0 2.0 113 113
- 1.63 0 1 cbr 5 ------- 0 0.0 2.0 113 113
r 1.63004 0 1 cbr 5 ------- 0 0.0 2.0 108 108
+ 1.63004 1 2 cbr 5 ------- 0 0.0 2.0 108 108
- 1.63004 1 2 cbr 5 ------- 0 0.0 2.0 108 108
r 1.63544 1 2 cbr 5 ------- 0 0.0 2.0 108 108
+ 1.64 0 1 cbr 5 ------- 0 0.0 2.0 114 114
- 1.64 0 1 cbr 5 ------- 0 0.0 2.0 114 114
r 1.64004 0 1 cbr 5 ------- 0 0.0 2.0 109 109
+ 1.64004 1 2 cbr 5 ------- 0 0.0 2.0 109 109
- 1.64004 1 2 cbr 5 ------- 0 0.0 2.0 109 109
r 1.64544 1 2 cbr 5 ------- 0 0.0 2.0 109 109
+ 1.65 0 1 cbr 5 ------- 0 0.0 2.0 115 115
- 1.65 0 1 cbr 5 ------- 0 0.0 2.0 115 115
r 1.65004 0 1 cbr 5 ------- 0 0.0 2.0 110 110
+ 1.65004 1 2 cbr 5 ------- 0 0.0 2.0 110 110
- 1.65004 1 2 cbr 5 ------- 0 0.0 2.0 110 110
r 1.65544 1 2 cbr 5 ------- 0 0.0 2.0 110 110
+ 1.66 0 1 cbr 5 ------- 0 0.0 2.0 116 116
- 1.66 0 1 cbr 5 ------- 0 0.0 2.0 116 116
r 1.66004 0 1 cbr 5 ------- 0 0.0 2.0 111 111
+ 1.66004 1 2 cbr 5 ------- 0 0.0 2.0 111 111
- 1.66004 1 2 cbr 5 ------- 0 0.0 2.0 111 111