h 0.5 1 21 cbr 1000 ------- 0 1.0 0.0 0 0
h 0.5 2 21 cbr 1000 ------- 0 2.0 0.1 0 1
h 0.5 3 21 cbr 1000 ------- 0 3.0 0.2 0 2
h 0.5 4 21 cbr 1000 ------- 0 4.0 0.3 0 3
h 0.5 5 21 cbr 1000 ------- 0 5.0 0.4 0 4
h 0.5 6 21 cbr 1000 ------- 0 6.0 0.5 0 5
h 0.5 7 21 cbr 1000 ------- 0 7.0 0.6 0 6
h 0.5 8 21 cbr 1000 ------- 0 8.0 0.7 0 7
h 0.5 9 21 cbr 1000 ------- 0 9.0 0.8 0 8
h 0.5 10 21 cbr 1000 ------- 0 10.0 0.9 0 9
h 0.5 11 21 cbr 1000 ------- 0 11.0 0.10 0 10
h 0.5 12 21 cbr 1000 ------- 0 12.0 0.11 0 11
h 0.5 13 21 cbr 1000 ------- 0 13.0 0.12 0 12
h 0.5 14 21 cbr 1000 ------- 0 14.0 0.13 0 13
h 0.5 15 21 cbr 1000 ------- 0 15.0 0.14 0 14
h 0.5 16 21 cbr 1000 ------- 0 16.0 0.15 0 15
h 0.5 17 21 cbr 1000 ------- 0 17.0 0.16 0 16
h 0.5 18 21 cbr 1000 ------- 0 18.0 0.17 0 17
h 0.5 19 21 cbr 1000 ------- 0 19.0 0.18 0 18
h 0.5 20 21 cbr 1000 ------- 0 20.0 0.19 0 19
+ 0.5 1 21 cbr 1000 ------- 0 1.0 0.0 0 0
- 0.5 1 21 cbr 1000 ------- 0 1.0 0.0 0 0
+ 0.5 2 21 cbr 1000 ------- 0 2.0 0.1 0 1
- 0.5 2 21 cbr 1000 ------- 0 2.0 0.1 0 1
+ 0.5 3 21 cbr 1000 ------- 0 3.0 0.2 0 2
- 0.5 3 21 cbr 1000 ------- 0 3.0 0.2 0 2
+ 0.5 4 21 cbr 1000 ------- 0 4.0 0.3 0 3
- 0.5 4 21 cbr 1000 ------- 0 4.0 0.3 0 3
+ 0.5 5 21 cbr 1000 ------- 0 5.0 0.4 0 4
- 0.5 5 21 cbr 1000 ------- 0 5.0 0.4 0 4
+ 0.5 6 21 cbr 1000 ------- 0 6.0 0.5 0 5
- 0.5 6 21 cbr 1000 ------- 0 6.0 0.5 0 5
+ 0.5 7 21 cbr 1000 ------- 0 7.0 0.6 0 6
- 0.5 7 21 cbr 1000 ------- 0 7.0 0.6 0 6
+ 0.5 8 21 cbr 1000 ------- 0 8.0 0.7 0 7
- 0.5 8 21 cbr 1000 ------- 0 8.0 0.7 0 7
+ 0.5 9 21 cbr 1000 ------- 0 9.0 0.8 0 8
- 0.5 9 21 cbr 1000 ------- 0 9.0 0.8 0 8
+ 0.5 10 21 cbr 1000 ------- 0 10.0 0.9 0 9
- 0.5 10 21 cbr 1000 ------- 0 10.0 0.9 0 9
+ 0.5 11 21 cbr 1000 ------- 0 11.0 0.10 0 10
- 0.5 11 21 cbr 1000 ------- 0 11.0 0.10 0 10
+ 0.5 12 21 cbr 1000 ------- 0 12.0 0.11 0 11
- 0.5 12 21 cbr 1000 ------- 0 12.0 0.11 0 11
+ 0.5 13 21 cbr 1000 ------- 0 13.0 0.12 0 12
- 0.5 13 21 cbr 1000 ------- 0 13.0 0.12 0 12
+ 0.5 14 21 cbr 1000 ------- 0 14.0 0.13 0 13
- 0.5 14 21 cbr 1000 ------- 0 14.0 0.13 0 13
+ 0.5 15 21 cbr 1000 ------- 0 15.0 0.14 0 14
- 0.5 15 21 cbr 1000 ------- 0 15.0 0.14 0 14
+ 0.5 16 21 cbr 1000 ------- 0 16.0 0.15 0 15
- 0.5 16 21 cbr 1000 ------- 0 16.0 0.15 0 15
+ 0.5 17 21 cbr 1000 ------- 0 17.0 0.16 0 16
- 0.5 17 21 cbr 1000 ------- 0 17.0 0.16 0 16
+ 0.5 18 21 cbr 1000 ------- 0 18.0 0.17 0 17
- 0.5 18 21 cbr 1000 ------- 0 18.0 0.17 0 17
+ 0.5 19 21 cbr 1000 ------- 0 19.0 0.18 0 18
- 0.5 19 21 cbr 1000 ------- 0 19.0 0.18 0 18
+ 0.5 20 21 cbr 1000 ------- 0 20.0 0.19 0 19
- 0.5 20 21 cbr 1000 ------- 0 20.0 0.19 0 19
c 0.500004 20 21 cbr 1014 ------- 0 1.0 0.0 0 0
c 0.500004 19 21 cbr 1014 ------- 0 1.0 0.0 0 0
c 0.500004 18 21 cbr 1014 ------- 0 1.0 0.0 0 0
c 0.500004 17 21 cbr 1014 ------- 0 1.0 0.0 0 0
c 0.500004 16 21 cbr 1014 ------- 0 1.0 0.0 0 0
c 0.500004 15 21 cbr 1014 ------- 0 1.0 0.0 0 0
c 0.500004 14 21 cbr 1014 ------- 0 1.0 0.0 0 0
c 0.500004 13 21 cbr 1014 ------- 0 1.0 0.0 0 0
c 0.500004 12 21 cbr 1014 ------- 0 1.0 0.0 0 0
c 0.500004 11 21 cbr 1014 ------- 0 1.0 0.0 0 0
c 0.500004 10 21 cbr 1014 ------- 0 1.0 0.0 0 0
c 0.500004 9 21 cbr 1014 ------- 0 1.0 0.0 0 0
c 0.500004 8 21 cbr 1014 ------- 0 1.0 0.0 0 0
c 0.500004 7 21 cbr 1014 ------- 0 1.0 0.0 0 0
c 0.500004 6 21 cbr 1014 ------- 0 1.0 0.0 0 0
c 0.500004 5 21 cbr 1014 ------- 0 1.0 0.0 0 0
c 0.500004 4 21 cbr 1014 ------- 0 1.0 0.0 0 0
c 0.500004 3 21 cbr 1014 ------- 0 1.0 0.0 0 0
c 0.500004 2 21 cbr 1014 ------- 0 1.0 0.0 0 0
c 0.500004 1 21 cbr 1014 ------- 0 2.0 0.1 0 1
c 0.500136 18 21 cbr 1014 ------- 0 19.0 0.18 0 18
c 0.500136 17 21 cbr 1014 ------- 0 19.0 0.18 0 18
c 0.500136 16 21 cbr 1014 ------- 0 19.0 0.18 0 18
c 0.500136 12 21 cbr 1014 ------- 0 19.0 0.18 0 18
c 0.500136 10 21 cbr 1014 ------- 0 19.0 0.18 0 18
c 0.500136 8 21 cbr 1014 ------- 0 19.0 0.18 0 18
c 0.500136 6 21 cbr 1014 ------- 0 19.0 0.18 0 18
c 0.500136 5 21 cbr 1014 ------- 0 19.0 0.18 0 18
c 0.500136 4 21 cbr 1014 ------- 0 19.0 0.18 0 18
c 0.500136 3 21 cbr 1014 ------- 0 19.0 0.18 0 18
c 0.500136 2 21 cbr 1014 ------- 0 19.0 0.18 0 18
c 0.500136 19 21 cbr 1014 ------- 0 18.0 0.17 0 17
c 0.500268 2 21 cbr 1014 ------- 0 10.0 0.9 0 9
c 0.500268 10 21 cbr 1014 ------- 0 2.0 0.1 0 1
c 0.500648 15 21 cbr 1014 ------- 0 20.0 0.19 0 19
c 0.500648 14 21 cbr 1014 ------- 0 20.0 0.19 0 19
c 0.500648 13 21 cbr 1014 ------- 0 20.0 0.19 0 19
c 0.500648 11 21 cbr 1014 ------- 0 20.0 0.19 0 19
c 0.500648 9 21 cbr 1014 ------- 0 20.0 0.19 0 19
c 0.500648 7 21 cbr 1014 ------- 0 20.0 0.19 0 19
c 0.500648 1 21 cbr 1014 ------- 0 20.0 0.19 0 19
c 0.500648 20 21 cbr 1014 ------- 0 15.0 0.14 0 14
r 0.508892 21 0 cbr 1000 ------- 0 19.0 0.18 0 18
c 0.508992 18 21 cbr 1014 ------- 0 20.0 0.19 0 19
c 0.508992 17 21 cbr 1014 ------- 0 20.0 0.19 0 19
c 0.508992 16 21 cbr 1014 ------- 0 20.0 0.19 0 19
c 0.508992 15 21 cbr 1014 ------- 0 20.0 0.19 0 19
c 0.508992 14 21 cbr 1014 ------- 0 20.0 0.19 0 19
c 0.508992 13 21 cbr 1014 ------- 0 20.0 0.19 0 19
c 0.508992 12 21 cbr 1014 ------- 0 20.0 0.19 0 19
c 0.508992 11 21 cbr 1014 ------- 0 20.0 0.19 0 19
c 0.508992 10 21 cbr 1014 ------- 0 20.0 0.19 0 19
c 0.508992 9 21 cbr 1014 ------- 0 20.0 0.19 0 19
c 0.508992 8 21 cbr 1014 ------- 0 20.0 0.19 0 19
c 0.508992 7 21 cbr 1014 ------- 0 20.0 0.19 0 19
c 0.508992 6 21 cbr 1014 ------- 0 20.0 0.19 0 19
c 0.508992 5 21 cbr 1014 ------- 0 20.0 0.19 0 19
c 0.508992 4 21 cbr 1014 ------- 0 20.0 0.19 0 19
c 0.508992 3 21 cbr 1014 ------- 0 20.0 0.19 0 19
c 0.508992 2 21 cbr 1014 ------- 0 20.0 0.19 0 19
c 0.508992 1 21 cbr 1014 ------- 0 20.0 0.19 0 19
c 0.508992 20 21 cbr 1014 ------- 0 18.0 0.17 0 17
r 0.517236 21 0 cbr 1000 ------- 0 6.0 0.5 0 5
c 0.517336 18 21 cbr 1014 ------- 0 20.0 0.19 0 19
c 0.517336 17 21 cbr 1014 ------- 0 20.0 0.19 0 19
c 0.517336 16 21 cbr 1014 ------- 0 20.0 0.19 0 19
c 0.517336 15 21 cbr 1014 ------- 0 20.0 0.19 0 19
c 0.517336 14 21 cbr 1014 ------- 0 20.0 0.19 0 19
c 0.517336 13 21 cbr 1014 ------- 0 20.0 0.19 0 19
c 0.517336 12 21 cbr 1014 ------- 0 20.0 0.19 0 19
c 0.517336 11 21 cbr 1014 ------- 0 20.0 0.19 0 19
c 0.517336 10 21 cbr 1014 ------- 0 20.0 0.19 0 19
c 0.517336 9 21 cbr 1014 ------- 0 20.0 0.19 0 19
c 0.517336 8 21 cbr 1014 ------- 0 20.0 0.19 0 19
c 0.517336 7 21 cbr 1014 ------- 0 20.0 0.19 0 19
c 0.517336 5 21 cbr 1014 ------- 0 20.0 0.19 0 19
c 0.517336 4 21 cbr 1014 ------- 0 20.0 0.19 0 19
c 0.517336 3 21 cbr 1014 ------- 0 20.0 0.19 0 19
c 0.517336 2 21 cbr 1014 ------- 0 20.0 0.19 0 19
c 0.517336 1 21 cbr 1014 ------- 0 20.0 0.19 0 19
c 0.517336 20 21 cbr 1014 ------- 0 18.0 0.17 0 17
r 0.52558 21 0 cbr 1000 ------- 0 12.0 0.11 0 11
c 0.52568 18 21 cbr 1014 ------- 0 20.0 0.19 0 19
c 0.52568 17 21 cbr 1014 ------- 0 20.0 0.19 0 19
c 0.52568 16 21 cbr 1014 ------- 0 20.0 0.19 0 19
c 0.52568 15 21 cbr 1014 ------- 0 20.0 0.19 0 19
c 0.52568 14 21 cbr 1014 ------- 0 20.0 0.19 0 19
c 0.52568 13 21 cbr 1014 ------- 0 20.0 0.19 0 19
c 0.52568 11 21 cbr 1014 ------- 0 20.0 0.19 0 19
c 0.52568 10 21 cbr 1014 ------- 0 20.0 0.19 0 19
c 0.52568 9 21 cbr 1014 ------- 0 20.0 0.19 0 19
c 0.52568 8 21 cbr 1014 ------- 0 20.0 0.19 0 19
c 0.52568 7 21 cbr 1014 ------- 0 20.0 0.19 0 19
c 0.52568 5 21 cbr 1014 ------- 0 20.0 0.19 0 19
c 0.52568 4 21 cbr 1014 ------- 0 20.0 0.19 0 19
c 0.52568 3 21 cbr 1014 ------- 0 20.0 0.19 0 19
c 0.52568 2 21 cbr 1014 ------- 0 20.0 0.19 0 19
c 0.52568 1 21 cbr 1014 ------- 0 20.0 0.19 0 19
c 0.52568 20 21 cbr 1014 ------- 0 18.0 0.17 0 17
r 0.533924 21 0 cbr 1000 ------- 0 18.0 0.17 0 17
c 0.534024 17 21 cbr 1014 ------- 0 20.0 0.19 0 19
c 0.534024 14 21 cbr 1014 ------- 0 20.0 0.19 0 19
c 0.534024 13 21 cbr 1014 ------- 0 20.0 0.19 0 19
c 0.534024 8 21 cbr 1014 ------- 0 20.0 0.19 0 19
c 0.534024 7 21 cbr 1014 ------- 0 20.0 0.19 0 19
c 0.534024 5 21 cbr 1014 ------- 0 20.0 0.19 0 19
c 0.534024 4 21 cbr 1014 ------- 0 20.0 0.19 0 19
c 0.534024 3 21 cbr 1014 ------- 0 20.0 0.19 0 19
c 0.534024 2 21 cbr 1014 ------- 0 20.0 0.19 0 19
c 0.534024 20 21 cbr 1014 ------- 0 17.0 0.16 0 16
r 0.542628 21 0 cbr 1000 ------- 0 11.0 0.10 0 10
c 0.542728 17 21 cbr 1014 ------- 0 20.0 0.19 0 19
c 0.542728 16 21 cbr 1014 ------- 0 20.0 0.19 0 19
c 0.542728 15 21 cbr 1014 ------- 0 20.0 0.19 0 19
c 0.542728 13 21 cbr 1014 ------- 0 20.0 0.19 0 19
c 0.542728 10 21 cbr 1014 ------- 0 20.0 0.19 0 19
c 0.542728 9 21 cbr 1014 ------- 0 20.0 0.19 0 19
c 0.542728 8 21 cbr 1014 ------- 0 20.0 0.19 0 19
c 0.542728 5 21 cbr 1014 ------- 0 20.0 0.19 0 19
c 0.542728 2 21 cbr 1014 ------- 0 20.0 0.19 0 19
c 0.542728 1 21 cbr 1014 ------- 0 20.0 0.19 0 19
c 0.542728 20 21 cbr 1014 ------- 0 17.0 0.16 0 16
r 0.556092 21 0 cbr 1000 ------- 0 14.0 0.13 0 13
c 0.556192 1 21 cbr 1014 ------- 0 16.0 0.15 0 15
c 0.556192 16 21 cbr 1014 ------- 0 1.0 0.0 0 0
r 0.564948 21 0 cbr 1000 ------- 0 16.0 0.15 0 15
c 0.565048 9 21 cbr 1014 ------- 0 13.0 0.12 0 12
c 0.565048 7 21 cbr 1014 ------- 0 13.0 0.12 0 12
c 0.565048 5 21 cbr 1014 ------- 0 13.0 0.12 0 12
c 0.565048 4 21 cbr 1014 ------- 0 13.0 0.12 0 12
c 0.565048 3 21 cbr 1014 ------- 0 13.0 0.12 0 12
c 0.565048 1 21 cbr 1014 ------- 0 13.0 0.12 0 12
c 0.565048 13 21 cbr 1014 ------- 0 9.0 0.8 0 8
h 0.58 1 21 cbr 1000 ------- 0 1.0 0.0 1 20
h 0.58 2 21 cbr 1000 ------- 0 2.0 0.1 1 21
h 0.58 3 21 cbr 1000 ------- 0 3.0 0.2 1 22
h 0.58 4 21 cbr 1000 ------- 0 4.0 0.3 1 23
h 0.58 5 21 cbr 1000 ------- 0 5.0 0.4 1 24
h 0.58 6 21 cbr 1000 ------- 0 6.0 0.5 1 25
h 0.58 7 21 cbr 1000 ------- 0 7.0 0.6 1 26
h 0.58 8 21 cbr 1000 ------- 0 8.0 0.7 1 27
h 0.58 9 21 cbr 1000 ------- 0 9.0 0.8 1 28
h 0.58 10 21 cbr 1000 ------- 0 10.0 0.9 1 29
h 0.58 11 21 cbr 1000 ------- 0 11.0 0.10 1 30
h 0.58 12 21 cbr 1000 ------- 0 12.0 0.11 1 31
h 0.58 13 21 cbr 1000 ------- 0 13.0 0.12 1 32
h 0.58 14 21 cbr 1000 ------- 0 14.0 0.13 1 33
h 0.58 15 21 cbr 1000 ------- 0 15.0 0.14 1 34
h 0.58 16 21 cbr 1000 ------- 0 16.0 0.15 1 35
h 0.58 17 21 cbr 1000 ------- 0 17.0 0.16 1 36
h 0.58 18 21 cbr 1000 ------- 0 18.0 0.17 1 37
h 0.58 19 21 cbr 1000 ------- 0 19.0 0.18 1 38
h 0.58 20 21 cbr 1000 ------- 0 20.0 0.19 1 39
+ 0.58 1 21 cbr 1000 ------- 0 1.0 0.0 1 20
+ 0.58 2 21 cbr 1000 ------- 0 2.0 0.1 1 21
+ 0.58 3 21 cbr 1000 ------- 0 3.0 0.2 1 22
+ 0.58 4 21 cbr 1000 ------- 0 4.0 0.3 1 23
+ 0.58 5 21 cbr 1000 ------- 0 5.0 0.4 1 24
+ 0.58 6 21 cbr 1000 ------- 0 6.0 0.5 1 25
- 0.58 6 21 cbr 1000 ------- 0 6.0 0.5 1 25
+ 0.58 7 21 cbr 1000 ------- 0 7.0 0.6 1 26
+ 0.58 8 21 cbr 1000 ------- 0 8.0 0.7 1 27
+ 0.58 9 21 cbr 1000 ------- 0 9.0 0.8 1 28
+ 0.58 10 21 cbr 1000 ------- 0 10.0 0.9 1 29
+ 0.58 11 21 cbr 1000 ------- 0 11.0 0.10 1 30
- 0.58 11 21 cbr 1000 ------- 0 11.0 0.10 1 30
+ 0.58 12 21 cbr 1000 ------- 0 12.0 0.11 1 31
- 0.58 12 21 cbr 1000 ------- 0 12.0 0.11 1 31
+ 0.58 13 21 cbr 1000 ------- 0 13.0 0.12 1 32
+ 0.58 14 21 cbr 1000 ------- 0 14.0 0.13 1 33
- 0.58 14 21 cbr 1000 ------- 0 14.0 0.13 1 33
+ 0.58 15 21 cbr 1000 ------- 0 15.0 0.14 1 34
+ 0.58 16 21 cbr 1000 ------- 0 16.0 0.15 1 35
- 0.58 16 21 cbr 1000 ------- 0 16.0 0.15 1 35
+ 0.58 17 21 cbr 1000 ------- 0 17.0 0.16 1 36
+ 0.58 18 21 cbr 1000 ------- 0 18.0 0.17 1 37
- 0.58 18 21 cbr 1000 ------- 0 18.0 0.17 1 37
+ 0.58 19 21 cbr 1000 ------- 0 19.0 0.18 1 38
- 0.58 19 21 cbr 1000 ------- 0 19.0 0.18 1 38
+ 0.58 20 21 cbr 1000 ------- 0 20.0 0.19 1 39
r 0.580972 21 0 cbr 1000 ------- 0 4.0 0.3 0 3
- 0.581064 4 21 cbr 1000 ------- 0 4.0 0.3 1 23
c 0.581068 19 21 cbr 1014 ------- 0 4.0 0.3 1 23
c 0.581068 18 21 cbr 1014 ------- 0 4.0 0.3 1 23
c 0.581068 16 21 cbr 1014 ------- 0 4.0 0.3 1 23
c 0.581068 15 21 cbr 1014 ------- 0 4.0 0.3 1 23
c 0.581068 14 21 cbr 1014 ------- 0 4.0 0.3 1 23
c 0.581068 12 21 cbr 1014 ------- 0 4.0 0.3 1 23
c 0.581068 11 21 cbr 1014 ------- 0 4.0 0.3 1 23
c 0.581068 7 21 cbr 1014 ------- 0 4.0 0.3 1 23
c 0.581068 6 21 cbr 1014 ------- 0 4.0 0.3 1 23
c 0.581072 4 21 cbr 1014 ------- 0 19.0 0.18 1 38
c 0.5812 12 21 cbr 1014 ------- 0 16.0 0.15 1 35
c 0.5812 11 21 cbr 1014 ------- 0 16.0 0.15 1 35
c 0.5812 16 21 cbr 1014 ------- 0 12.0 0.11 1 31
c 0.581712 18 21 cbr 1014 ------- 0 19.0 0.18 1 38
c 0.581712 14 21 cbr 1014 ------- 0 19.0 0.18 1 38
c 0.581712 6 21 cbr 1014 ------- 0 19.0 0.18 1 38
c 0.581712 4 21 cbr 1014 ------- 0 19.0 0.18 1 38
c 0.581712 19 21 cbr 1014 ------- 0 18.0 0.17 1 37
c 0.581844 4 21 cbr 1014 ------- 0 18.0 0.17 1 37
c 0.581844 18 21 cbr 1014 ------- 0 4.0 0.3 1 23
r 0.590088 21 0 cbr 1000 ------- 0 18.0 0.17 1 37
c 0.590188 19 21 cbr 1014 ------- 0 20.0 0.19 0 19
c 0.590188 16 21 cbr 1014 ------- 0 20.0 0.19 0 19
c 0.590188 14 21 cbr 1014 ------- 0 20.0 0.19 0 19
c 0.590188 12 21 cbr 1014 ------- 0 20.0 0.19 0 19
c 0.590188 11 21 cbr 1014 ------- 0 20.0 0.19 0 19
c 0.590188 8 21 cbr 1014 ------- 0 20.0 0.19 0 19
c 0.590188 6 21 cbr 1014 ------- 0 20.0 0.19 0 19
c 0.590188 5 21 cbr 1014 ------- 0 20.0 0.19 0 19
c 0.590188 4 21 cbr 1014 ------- 0 20.0 0.19 0 19
c 0.590188 3 21 cbr 1014 ------- 0 20.0 0.19 0 19
c 0.590188 1 21 cbr 1014 ------- 0 20.0 0.19 0 19
c 0.590188 20 21 cbr 1014 ------- 0 19.0 0.18 1 38
r 0.598432 21 0 cbr 1000 ------- 0 14.0 0.13 1 33
c 0.598532 16 21 cbr 1014 ------- 0 19.0 0.18 1 38
c 0.598532 12 21 cbr 1014 ------- 0 19.0 0.18 1 38
c 0.598532 11 21 cbr 1014 ------- 0 19.0 0.18 1 38
c 0.598532 6 21 cbr 1014 ------- 0 19.0 0.18 1 38
c 0.598532 4 21 cbr 1014 ------- 0 19.0 0.18 1 38
c 0.598532 19 21 cbr 1014 ------- 0 16.0 0.15 1 35
r 0.606776 21 0 cbr 1000 ------- 0 11.0 0.10 1 30
c 0.606876 17 21 cbr 1014 ------- 0 19.0 0.18 1 38
c 0.606876 16 21 cbr 1014 ------- 0 19.0 0.18 1 38
c 0.606876 12 21 cbr 1014 ------- 0 19.0 0.18 1 38
c 0.606876 10 21 cbr 1014 ------- 0 19.0 0.18 1 38
c 0.606876 6 21 cbr 1014 ------- 0 19.0 0.18 1 38
c 0.606876 4 21 cbr 1014 ------- 0 19.0 0.18 1 38
c 0.606876 19 21 cbr 1014 ------- 0 17.0 0.16 0 16
c 0.615712 19 21 cbr 1014 ------- 0 12.0 0.11 1 31
c 0.615712 12 21 cbr 1014 ------- 0 19.0 0.18 1 38
r 0.62536 21 0 cbr 1000 ------- 0 6.0 0.5 1 25
c 0.62546 9 21 cbr 1014 ------- 0 16.0 0.15 1 35
c 0.62546 4 21 cbr 1014 ------- 0 16.0 0.15 1 35
c 0.62546 3 21 cbr 1014 ------- 0 16.0 0.15 1 35
c 0.62546 16 21 cbr 1014 ------- 0 9.0 0.8 0 8
r 0.63376 21 0 cbr 1000 ------- 0 8.0 0.7 0 7
- 0.633852 8 21 cbr 1000 ------- 0 8.0 0.7 1 27
c 0.633856 12 21 cbr 1014 ------- 0 8.0 0.7 1 27
c 0.63386 8 21 cbr 1014 ------- 0 12.0 0.11 1 31
r 0.642108 21 0 cbr 1000 ------- 0 2.0 0.1 0 1
- 0.6422 2 21 cbr 1000 ------- 0 2.0 0.1 1 21
c 0.642204 19 21 cbr 1014 ------- 0 2.0 0.1 1 21
c 0.642204 15 21 cbr 1014 ------- 0 2.0 0.1 1 21
c 0.642204 13 21 cbr 1014 ------- 0 2.0 0.1 1 21
c 0.642204 8 21 cbr 1014 ------- 0 2.0 0.1 1 21
c 0.642204 4 21 cbr 1014 ------- 0 2.0 0.1 1 21
c 0.642208 2 21 cbr 1014 ------- 0 19.0 0.18 1 38
c 0.642336 2 21 cbr 1014 ------- 0 8.0 0.7 1 27
c 0.64234 8 21 cbr 1014 ------- 0 2.0 0.1 1 21
r 0.6506 21 0 cbr 1000 ------- 0 3.0 0.2 0 2
- 0.650692 3 21 cbr 1000 ------- 0 3.0 0.2 1 22
c 0.650696 16 21 cbr 1014 ------- 0 3.0 0.2 1 22
c 0.650696 8 21 cbr 1014 ------- 0 3.0 0.2 1 22
c 0.650696 2 21 cbr 1014 ------- 0 3.0 0.2 1 22
c 0.6507 3 21 cbr 1014 ------- 0 16.0 0.15 1 35
c 0.650828 3 21 cbr 1014 ------- 0 8.0 0.7 1 27
c 0.650832 8 21 cbr 1014 ------- 0 3.0 0.2 1 22
h 0.66 1 21 cbr 1000 ------- 0 1.0 0.0 2 40
h 0.66 2 21 cbr 1000 ------- 0 2.0 0.1 2 41
h 0.66 3 21 cbr 1000 ------- 0 3.0 0.2 2 42
h 0.66 4 21 cbr 1000 ------- 0 4.0 0.3 2 43
h 0.66 5 21 cbr 1000 ------- 0 5.0 0.4 2 44
h 0.66 6 21 cbr 1000 ------- 0 6.0 0.5 2 45
h 0.66 7 21 cbr 1000 ------- 0 7.0 0.6 2 46
h 0.66 8 21 cbr 1000 ------- 0 8.0 0.7 2 47
h 0.66 9 21 cbr 1000 ------- 0 9.0 0.8 2 48
h 0.66 10 21 cbr 1000 ------- 0 10.0 0.9 2 49
h 0.66 11 21 cbr 1000 ------- 0 11.0 0.10 2 50
h 0.66 12 21 cbr 1000 ------- 0 12.0 0.11 2 51
h 0.66 13 21 cbr 1000 ------- 0 13.0 0.12 2 52
h 0.66 14 21 cbr 1000 ------- 0 14.0 0.13 2 53
h 0.66 15 21 cbr 1000 ------- 0 15.0 0.14 2 54
h 0.66 16 21 cbr 1000 ------- 0 16.0 0.15 2 55
h 0.66 17 21 cbr 1000 ------- 0 17.0 0.16 2 56
h 0.66 18 21 cbr 1000 ------- 0 18.0 0.17 2 57
h 0.66 19 21 cbr 1000 ------- 0 19.0 0.18 2 58
h 0.66 20 21 cbr 1000 ------- 0 20.0 0.19 2 59
+ 0.66 1 21 cbr 1000 ------- 0 1.0 0.0 2 40
+ 0.66 2 21 cbr 1000 ------- 0 2.0 0.1 2 41
+ 0.66 3 21 cbr 1000 ------- 0 3.0 0.2 2 42
+ 0.66 4 21 cbr 1000 ------- 0 4.0 0.3 2 43
+ 0.66 5 21 cbr 1000 ------- 0 5.0 0.4 2 44
+ 0.66 6 21 cbr 1000 ------- 0 6.0 0.5 2 45
- 0.66 6 21 cbr 1000 ------- 0 6.0 0.5 2 45
+ 0.66 7 21 cbr 1000 ------- 0 7.0 0.6 2 46
+ 0.66 8 21 cbr 1000 ------- 0 8.0 0.7 2 47
+ 0.66 9 21 cbr 1000 ------- 0 9.0 0.8 2 48
+ 0.66 10 21 cbr 1000 ------- 0 10.0 0.9 2 49
+ 0.66 11 21 cbr 1000 ------- 0 11.0 0.10 2 50
- 0.66 11 21 cbr 1000 ------- 0 11.0 0.10 2 50
+ 0.66 12 21 cbr 1000 ------- 0 12.0 0.11 2 51
+ 0.66 13 21 cbr 1000 ------- 0 13.0 0.12 2 52
+ 0.66 14 21 cbr 1000 ------- 0 14.0 0.13 2 53
- 0.66 14 21 cbr 1000 ------- 0 14.0 0.13 2 53
+ 0.66 15 21 cbr 1000 ------- 0 15.0 0.14 2 54
+ 0.66 16 21 cbr 1000 ------- 0 16.0 0.15 2 55
+ 0.66 17 21 cbr 1000 ------- 0 17.0 0.16 2 56
+ 0.66 18 21 cbr 1000 ------- 0 18.0 0.17 2 57
- 0.66 18 21 cbr 1000 ------- 0 18.0 0.17 2 57
+ 0.66 19 21 cbr 1000 ------- 0 19.0 0.18 2 58
+ 0.66 20 21 cbr 1000 ------- 0 20.0 0.19 2 59
r 0.66002 21 0 cbr 1000 ------- 0 12.0 0.11 1 31
- 0.660112 12 21 cbr 1000 ------- 0 12.0 0.11 2 51
c 0.660116 20 21 cbr 1014 ------- 0 12.0 0.11 2 51
c 0.660116 19 21 cbr 1014 ------- 0 12.0 0.11 2 51
c 0.660116 18 21 cbr 1014 ------- 0 12.0 0.11 2 51
c 0.660116 16 21 cbr 1014 ------- 0 12.0 0.11 2 51
c 0.660116 14 21 cbr 1014 ------- 0 12.0 0.11 2 51
c 0.660116 11 21 cbr 1014 ------- 0 12.0 0.11 2 51
c 0.660116 6 21 cbr 1014 ------- 0 12.0 0.11 2 51
c 0.660116 3 21 cbr 1014 ------- 0 12.0 0.11 2 51
c 0.660116 2 21 cbr 1014 ------- 0 12.0 0.11 2 51
c 0.66012 12 21 cbr 1014 ------- 0 20.0 0.19 0 19
c 0.660248 12 21 cbr 1014 ------- 0 14.0 0.13 2 53
c 0.660252 14 21 cbr 1014 ------- 0 12.0 0.11 2 51
c 0.66038 14 21 cbr 1014 ------- 0 12.0 0.11 2 51
c 0.660384 12 21 cbr 1014 ------- 0 14.0 0.13 2 53
c 0.66076 11 21 cbr 1014 ------- 0 18.0 0.17 2 57
c 0.66076 6 21 cbr 1014 ------- 0 18.0 0.17 2 57
c 0.66076 18 21 cbr 1014 ------- 0 11.0 0.10 2 50
r 0.669384 21 0 cbr 1000 ------- 0 3.0 0.2 1 22
- 0.669476 3 21 cbr 1000 ------- 0 3.0 0.2 2 42
c 0.66948 18 21 cbr 1014 ------- 0 3.0 0.2 2 42
c 0.66948 17 21 cbr 1014 ------- 0 3.0 0.2 2 42
c 0.66948 14 21 cbr 1014 ------- 0 3.0 0.2 2 42
c 0.66948 12 21 cbr 1014 ------- 0 3.0 0.2 2 42
c 0.66948 11 21 cbr 1014 ------- 0 3.0 0.2 2 42
c 0.66948 9 21 cbr 1014 ------- 0 3.0 0.2 2 42
c 0.66948 8 21 cbr 1014 ------- 0 3.0 0.2 2 42
c 0.66948 6 21 cbr 1014 ------- 0 3.0 0.2 2 42
c 0.66948 2 21 cbr 1014 ------- 0 3.0 0.2 2 42
c 0.669484 3 21 cbr 1014 ------- 0 18.0 0.17 2 57
c 0.670124 3 21 cbr 1014 ------- 0 18.0 0.17 2 57
c 0.670128 18 21 cbr 1014 ------- 0 3.0 0.2 2 42
r 0.67888 21 0 cbr 1000 ------- 0 3.0 0.2 2 42
c 0.67898 14 21 cbr 1014 ------- 0 18.0 0.17 2 57
c 0.67898 12 21 cbr 1014 ------- 0 18.0 0.17 2 57
c 0.67898 11 21 cbr 1014 ------- 0 18.0 0.17 2 57
c 0.67898 6 21 cbr 1014 ------- 0 18.0 0.17 2 57
c 0.67898 4 21 cbr 1014 ------- 0 18.0 0.17 2 57
c 0.67898 2 21 cbr 1014 ------- 0 18.0 0.17 2 57
c 0.67898 18 21 cbr 1014 ------- 0 14.0 0.13 2 53
c 0.679112 6 21 cbr 1014 ------- 0 14.0 0.13 2 53
c 0.679112 14 21 cbr 1014 ------- 0 6.0 0.5 2 45
r 0.687824 21 0 cbr 1000 ------- 0 10.0 0.9 0 9
- 0.687916 10 21 cbr 1000 ------- 0 10.0 0.9 1 29
c 0.68792 18 21 cbr 1014 ------- 0 10.0 0.9 1 29
c 0.68792 12 21 cbr 1014 ------- 0 10.0 0.9 1 29
c 0.68792 11 21 cbr 1014 ------- 0 10.0 0.9 1 29
c 0.68792 7 21 cbr 1014 ------- 0 10.0 0.9 1 29
c 0.687924 10 21 cbr 1014 ------- 0 18.0 0.17 2 57
r 0.696168 21 0 cbr 1000 ------- 0 10.0 0.9 1 29
- 0.69626 10 21 cbr 1000 ------- 0 10.0 0.9 2 49
c 0.696264 14 21 cbr 1014 ------- 0 10.0 0.9 2 49
c 0.696264 11 21 cbr 1014 ------- 0 10.0 0.9 2 49
c 0.696264 8 21 cbr 1014 ------- 0 10.0 0.9 2 49
c 0.696264 6 21 cbr 1014 ------- 0 10.0 0.9 2 49
c 0.696268 10 21 cbr 1014 ------- 0 14.0 0.13 2 53
c 0.696396 10 21 cbr 1014 ------- 0 11.0 0.10 2 50
c 0.6964 11 21 cbr 1014 ------- 0 10.0 0.9 2 49
r 0.705152 21 0 cbr 1000 ------- 0 10.0 0.9 2 49
c 0.705252 2 21 cbr 1014 ------- 0 12.0 0.11 2 51
c 0.705252 12 21 cbr 1014 ------- 0 2.0 0.1 1 21
r 0.714236 21 0 cbr 1000 ------- 0 6.0 0.5 2 45
r 0.722448 21 0 cbr 1000 ------- 0 18.0 0.17 2 57
r 0.73748 21 0 cbr 1000 ------- 0 19.0 0.18 1 38
- 0.737572 19 21 cbr 1000 ------- 0 19.0 0.18 2 58
c 0.737576 15 21 cbr 1014 ------- 0 19.0 0.18 2 58
c 0.737576 14 21 cbr 1014 ------- 0 19.0 0.18 2 58
c 0.737576 8 21 cbr 1014 ------- 0 19.0 0.18 2 58
c 0.73758 19 21 cbr 1014 ------- 0 15.0 0.14 0 14
h 0.74 1 21 cbr 1000 ------- 0 1.0 0.0 3 60
h 0.74 2 21 cbr 1000 ------- 0 2.0 0.1 3 61
h 0.74 3 21 cbr 1000 ------- 0 3.0 0.2 3 62
h 0.74 4 21 cbr 1000 ------- 0 4.0 0.3 3 63
h 0.74 5 21 cbr 1000 ------- 0 5.0 0.4 3 64
h 0.74 6 21 cbr 1000 ------- 0 6.0 0.5 3 65
h 0.74 7 21 cbr 1000 ------- 0 7.0 0.6 3 66
h 0.74 8 21 cbr 1000 ------- 0 8.0 0.7 3 67
h 0.74 9 21 cbr 1000 ------- 0 9.0 0.8 3 68
h 0.74 10 21 cbr 1000 ------- 0 10.0 0.9 3 69
h 0.74 11 21 cbr 1000 ------- 0 11.0 0.10 3 70
h 0.74 12 21 cbr 1000 ------- 0 12.0 0.11 3 71
h 0.74 13 21 cbr 1000 ------- 0 13.0 0.12 3 72
h 0.74 14 21 cbr 1000 ------- 0 14.0 0.13 3 73
h 0.74 15 21 cbr 1000 ------- 0 15.0 0.14 3 74
h 0.74 16 21 cbr 1000 ------- 0 16.0 0.15 3 75
h 0.74 17 21 cbr 1000 ------- 0 17.0 0.16 3 76
h 0.74 18 21 cbr 1000 ------- 0 18.0 0.17 3 77
h 0.74 19 21 cbr 1000 ------- 0 19.0 0.18 3 78
h 0.74 20 21 cbr 1000 ------- 0 20.0 0.19 3 79
+ 0.74 1 21 cbr 1000 ------- 0 1.0 0.0 3 60
+ 0.74 2 21 cbr 1000 ------- 0 2.0 0.1 3 61
+ 0.74 3 21 cbr 1000 ------- 0 3.0 0.2 3 62
- 0.74 3 21 cbr 1000 ------- 0 3.0 0.2 3 62
+ 0.74 4 21 cbr 1000 ------- 0 4.0 0.3 3 63
+ 0.74 5 21 cbr 1000 ------- 0 5.0 0.4 3 64
+ 0.74 6 21 cbr 1000 ------- 0 6.0 0.5 3 65
- 0.74 6 21 cbr 1000 ------- 0 6.0 0.5 3 65
+ 0.74 7 21 cbr 1000 ------- 0 7.0 0.6 3 66
+ 0.74 8 21 cbr 1000 ------- 0 8.0 0.7 3 67
+ 0.74 9 21 cbr 1000 ------- 0 9.0 0.8 3 68
+ 0.74 10 21 cbr 1000 ------- 0 10.0 0.9 3 69
- 0.74 10 21 cbr 1000 ------- 0 10.0 0.9 3 69
+ 0.74 11 21 cbr 1000 ------- 0 11.0 0.10 3 70
+ 0.74 12 21 cbr 1000 ------- 0 12.0 0.11 3 71
+ 0.74 13 21 cbr 1000 ------- 0 13.0 0.12 3 72
+ 0.74 14 21 cbr 1000 ------- 0 14.0 0.13 3 73
+ 0.74 15 21 cbr 1000 ------- 0 15.0 0.14 3 74
+ 0.74 16 21 cbr 1000 ------- 0 16.0 0.15 3 75
+ 0.74 17 21 cbr 1000 ------- 0 17.0 0.16 3 76
+ 0.74 18 21 cbr 1000 ------- 0 18.0 0.17 3 77
- 0.74 18 21 cbr 1000 ------- 0 18.0 0.17 3 77
+ 0.74 19 21 cbr 1000 ------- 0 19.0 0.18 3 78
+ 0.74 20 21 cbr 1000 ------- 0 20.0 0.19 3 79
r 0.745824 21 0 cbr 1000 ------- 0 19.0 0.18 2 58
- 0.745916 19 21 cbr 1000 ------- 0 19.0 0.18 3 78
c 0.74592 18 21 cbr 1014 ------- 0 19.0 0.18 3 78
c 0.74592 16 21 cbr 1014 ------- 0 19.0 0.18 3 78
c 0.74592 10 21 cbr 1014 ------- 0 19.0 0.18 3 78
c 0.74592 6 21 cbr 1014 ------- 0 19.0 0.18 3 78
c 0.74592 3 21 cbr 1014 ------- 0 19.0 0.18 3 78
c 0.745924 19 21 cbr 1014 ------- 0 18.0 0.17 3 77
r 0.754164 21 0 cbr 1000 ------- 0 18.0 0.17 3 77
c 0.754264 10 21 cbr 1014 ------- 0 19.0 0.18 3 78
c 0.754264 6 21 cbr 1014 ------- 0 19.0 0.18 3 78
c 0.754264 3 21 cbr 1014 ------- 0 19.0 0.18 3 78
c 0.754264 19 21 cbr 1014 ------- 0 10.0 0.9 3 69
r 0.762508 21 0 cbr 1000 ------- 0 19.0 0.18 3 78
c 0.762608 10 21 cbr 1014 ------- 0 11.0 0.10 2 50
c 0.762608 6 21 cbr 1014 ------- 0 11.0 0.10 2 50
c 0.762608 3 21 cbr 1014 ------- 0 11.0 0.10 2 50
c 0.762608 1 21 cbr 1014 ------- 0 11.0 0.10 2 50
c 0.762608 11 21 cbr 1014 ------- 0 10.0 0.9 3 69
r 0.771876 21 0 cbr 1000 ------- 0 10.0 0.9 3 69
c 0.771976 6 21 cbr 1014 ------- 0 12.0 0.11 2 51
c 0.771976 3 21 cbr 1014 ------- 0 12.0 0.11 2 51
c 0.771976 2 21 cbr 1014 ------- 0 12.0 0.11 2 51
c 0.771976 12 21 cbr 1014 ------- 0 6.0 0.5 3 65
r 0.781244 21 0 cbr 1000 ------- 0 3.0 0.2 3 62
c 0.781344 6 21 cbr 1014 ------- 0 13.0 0.12 0 12
c 0.781344 13 21 cbr 1014 ------- 0 6.0 0.5 3 65
r 0.798804 21 0 cbr 1000 ------- 0 6.0 0.5 3 65
c 0.798904 8 21 cbr 1014 ------- 0 17.0 0.16 0 16
c 0.798904 17 21 cbr 1014 ------- 0 8.0 0.7 1 27
r 0.809252 21 0 cbr 1000 ------- 0 11.0 0.10 2 50
- 0.809344 11 21 cbr 1000 ------- 0 11.0 0.10 3 70
r 0.81746 21 0 cbr 1000 ------- 0 11.0 0.10 3 70
h 0.82 1 21 cbr 1000 ------- 0 1.0 0.0 4 80
h 0.82 2 21 cbr 1000 ------- 0 2.0 0.1 4 81
h 0.82 3 21 cbr 1000 ------- 0 3.0 0.2 4 82
h 0.82 4 21 cbr 1000 ------- 0 4.0 0.3 4 83
h 0.82 5 21 cbr 1000 ------- 0 5.0 0.4 4 84
h 0.82 6 21 cbr 1000 ------- 0 6.0 0.5 4 85
h 0.82 7 21 cbr 1000 ------- 0 7.0 0.6 4 86
h 0.82 8 21 cbr 1000 ------- 0 8.0 0.7 4 87
h 0.82 9 21 cbr 1000 ------- 0 9.0 0.8 4 88
h 0.82 10 21 cbr 1000 ------- 0 10.0 0.9 4 89
h 0.82 11 21 cbr 1000 ------- 0 11.0 0.10 4 90
h 0.82 12 21 cbr 1000 ------- 0 12.0 0.11 4 91
h 0.82 13 21 cbr 1000 ------- 0 13.0 0.12 4 92
h 0.82 14 21 cbr 1000 ------- 0 14.0 0.13 4 93
h 0.82 15 21 cbr 1000 ------- 0 15.0 0.14 4 94
h 0.82 16 21 cbr 1000 ------- 0 16.0 0.15 4 95
h 0.82 17 21 cbr 1000 ------- 0 17.0 0.16 4 96
h 0.82 18 21 cbr 1000 ------- 0 18.0 0.17 4 97
h 0.82 19 21 cbr 1000 ------- 0 19.0 0.18 4 98
h 0.82 20 21 cbr 1000 ------- 0 20.0 0.19 4 99
+ 0.82 1 21 cbr 1000 ------- 0 1.0 0.0 4 80
+ 0.82 2 21 cbr 1000 ------- 0 2.0 0.1 4 81
+ 0.82 3 21 cbr 1000 ------- 0 3.0 0.2 4 82
- 0.82 3 21 cbr 1000 ------- 0 3.0 0.2 4 82
+ 0.82 4 21 cbr 1000 ------- 0 4.0 0.3 4 83
+ 0.82 5 21 cbr 1000 ------- 0 5.0 0.4 4 84
+ 0.82 6 21 cbr 1000 ------- 0 6.0 0.5 4 85
- 0.82 6 21 cbr 1000 ------- 0 6.0 0.5 4 85
+ 0.82 7 21 cbr 1000 ------- 0 7.0 0.6 4 86
+ 0.82 8 21 cbr 1000 ------- 0 8.0 0.7 4 87
+ 0.82 9 21 cbr 1000 ------- 0 9.0 0.8 4 88
+ 0.82 10 21 cbr 1000 ------- 0 10.0 0.9 4 89
- 0.82 10 21 cbr 1000 ------- 0 10.0 0.9 4 89
+ 0.82 11 21 cbr 1000 ------- 0 11.0 0.10 4 90
- 0.82 11 21 cbr 1000 ------- 0 11.0 0.10 4 90
+ 0.82 12 21 cbr 1000 ------- 0 12.0 0.11 4 91
+ 0.82 13 21 cbr 1000 ------- 0 13.0 0.12 4 92
+ 0.82 14 21 cbr 1000 ------- 0 14.0 0.13 4 93
+ 0.82 15 21 cbr 1000 ------- 0 15.0 0.14 4 94
+ 0.82 16 21 cbr 1000 ------- 0 16.0 0.15 4 95
+ 0.82 17 21 cbr 1000 ------- 0 17.0 0.16 4 96
+ 0.82 18 21 cbr 1000 ------- 0 18.0 0.17 4 97
- 0.82 18 21 cbr 1000 ------- 0 18.0 0.17 4 97
+ 0.82 19 21 cbr 1000 ------- 0 19.0 0.18 4 98
- 0.82 19 21 cbr 1000 ------- 0 19.0 0.18 4 98
+ 0.82 20 21 cbr 1000 ------- 0 20.0 0.19 4 99
r 0.827116 21 0 cbr 1000 ------- 0 8.0 0.7 1 27
- 0.827208 8 21 cbr 1000 ------- 0 8.0 0.7 2 47
c 0.827212 20 21 cbr 1014 ------- 0 8.0 0.7 2 47
c 0.827212 19 21 cbr 1014 ------- 0 8.0 0.7 2 47
c 0.827212 18 21 cbr 1014 ------- 0 8.0 0.7 2 47
c 0.827212 11 21 cbr 1014 ------- 0 8.0 0.7 2 47
c 0.827212 10 21 cbr 1014 ------- 0 8.0 0.7 2 47
c 0.827212 6 21 cbr 1014 ------- 0 8.0 0.7 2 47
c 0.827212 3 21 cbr 1014 ------- 0 8.0 0.7 2 47
c 0.827216 8 21 cbr 1014 ------- 0 20.0 0.19 0 19
c 0.827344 6 21 cbr 1014 ------- 0 19.0 0.18 4 98
c 0.827344 3 21 cbr 1014 ------- 0 19.0 0.18 4 98
c 0.827344 19 21 cbr 1014 ------- 0 6.0 0.5 4 85
c 0.827856 11 21 cbr 1014 ------- 0 18.0 0.17 4 97
c 0.827856 10 21 cbr 1014 ------- 0 18.0 0.17 4 97
c 0.827856 8 21 cbr 1014 ------- 0 18.0 0.17 4 97
c 0.827856 18 21 cbr 1014 ------- 0 11.0 0.10 4 90
c 0.827988 18 21 cbr 1014 ------- 0 11.0 0.10 4 90
c 0.827988 10 21 cbr 1014 ------- 0 11.0 0.10 4 90
c 0.827988 11 21 cbr 1014 ------- 0 10.0 0.9 4 89
r 0.836232 21 0 cbr 1000 ------- 0 10.0 0.9 4 89
c 0.836332 18 21 cbr 1014 ------- 0 19.0 0.18 4 98
c 0.836332 11 21 cbr 1014 ------- 0 19.0 0.18 4 98
c 0.836332 8 21 cbr 1014 ------- 0 19.0 0.18 4 98
c 0.836332 6 21 cbr 1014 ------- 0 19.0 0.18 4 98
c 0.836332 5 21 cbr 1014 ------- 0 19.0 0.18 4 98
c 0.836332 3 21 cbr 1014 ------- 0 19.0 0.18 4 98
c 0.836332 19 21 cbr 1014 ------- 0 18.0 0.17 4 97
r 0.845088 21 0 cbr 1000 ------- 0 3.0 0.2 4 82
c 0.845188 18 21 cbr 1014 ------- 0 19.0 0.18 4 98
c 0.845188 11 21 cbr 1014 ------- 0 19.0 0.18 4 98
c 0.845188 8 21 cbr 1014 ------- 0 19.0 0.18 4 98
c 0.845188 6 21 cbr 1014 ------- 0 19.0 0.18 4 98
c 0.845188 19 21 cbr 1014 ------- 0 18.0 0.17 4 97
r 0.854968 21 0 cbr 1000 ------- 0 8.0 0.7 2 47
- 0.85506 8 21 cbr 1000 ------- 0 8.0 0.7 3 67
c 0.855064 19 21 cbr 1014 ------- 0 8.0 0.7 3 67
c 0.855064 7 21 cbr 1014 ------- 0 8.0 0.7 3 67
c 0.855064 6 21 cbr 1014 ------- 0 8.0 0.7 3 67
c 0.855064 4 21 cbr 1014 ------- 0 8.0 0.7 3 67
c 0.855068 8 21 cbr 1014 ------- 0 19.0 0.18 4 98
r 0.863312 21 0 cbr 1000 ------- 0 8.0 0.7 3 67
- 0.863404 8 21 cbr 1000 ------- 0 8.0 0.7 4 87
c 0.863408 19 21 cbr 1014 ------- 0 8.0 0.7 4 87
c 0.863408 18 21 cbr 1014 ------- 0 8.0 0.7 4 87
c 0.863408 11 21 cbr 1014 ------- 0 8.0 0.7 4 87
c 0.863408 6 21 cbr 1014 ------- 0 8.0 0.7 4 87
c 0.863412 8 21 cbr 1014 ------- 0 19.0 0.18 4 98
r 0.871772 21 0 cbr 1000 ------- 0 14.0 0.13 2 53
- 0.871864 14 21 cbr 1000 ------- 0 14.0 0.13 3 73
c 0.871868 19 21 cbr 1014 ------- 0 14.0 0.13 3 73
c 0.871868 18 21 cbr 1014 ------- 0 14.0 0.13 3 73
c 0.871868 8 21 cbr 1014 ------- 0 14.0 0.13 3 73
c 0.871872 14 21 cbr 1014 ------- 0 19.0 0.18 4 98
r 0.880116 21 0 cbr 1000 ------- 0 14.0 0.13 3 73
- 0.880208 14 21 cbr 1000 ------- 0 14.0 0.13 4 93
c 0.880212 11 21 cbr 1014 ------- 0 14.0 0.13 4 93
c 0.880212 8 21 cbr 1014 ------- 0 14.0 0.13 4 93
c 0.880216 14 21 cbr 1014 ------- 0 11.0 0.10 4 90
r 0.88846 21 0 cbr 1000 ------- 0 14.0 0.13 4 93
r 0.896672 21 0 cbr 1000 ------- 0 8.0 0.7 4 87
c 0.896772 12 21 cbr 1014 ------- 0 18.0 0.17 4 97
c 0.896772 11 21 cbr 1014 ------- 0 18.0 0.17 4 97
c 0.896772 6 21 cbr 1014 ------- 0 18.0 0.17 4 97
c 0.896772 18 21 cbr 1014 ------- 0 12.0 0.11 2 51
h 0.9 1 21 cbr 1000 ------- 0 1.0 0.0 5 100
h 0.9 2 21 cbr 1000 ------- 0 2.0 0.1 5 101
h 0.9 3 21 cbr 1000 ------- 0 3.0 0.2 5 102
h 0.9 4 21 cbr 1000 ------- 0 4.0 0.3 5 103
h 0.9 5 21 cbr 1000 ------- 0 5.0 0.4 5 104